variable        infile index box.lmp
variable        mytemp index 120.0
variable        pressure index 1.0
variable        seed index 242321
variable	dt index 1.0

units           real
special_bonds   lj 0.0 0.0 0.5 coul 0.0 0.0 0.8333
#neighbor        2.0 bin
#neigh_modify    delay 0 every 1 check yes page 1000000 one 20000
atom_style      full
pair_style	 lj/cut/coul/long 12.0

bond_style	 harmonic
dihedral_style	 charmm
angle_style	 harmonic
improper_style	 cvff

read_data       ${infile}
read_data       box.lmp
Reading data file ...
  orthogonal box = (-15.000000 -19.000000 -22.000000) to (15.000000 19.000000 22.000000)
  2 by 3 by 4 MPI processor grid
  reading atoms ...
  4096 atoms
  scanning bonds ...
  3 = max bonds/atom
  scanning angles ...
  3 = max angles/atom
  scanning dihedrals ...
  4 = max dihedrals/atom
  scanning impropers ...
  1 = max impropers/atom
  reading bonds ...
  3584 bonds
  reading angles ...
  4608 angles
  reading dihedrals ...
  4096 dihedrals
  reading impropers ...
  1536 impropers
Finding 1-2 1-3 1-4 neighbors ...
  special bond factors lj:    0        0        0.5     
  special bond factors coul:  0        0        0.8333  
     3 = max # of 1-2 neighbors
     4 = max # of 1-3 neighbors
     6 = max # of 1-4 neighbors
     7 = max # of special neighbors
  special bonds CPU = 0.070 seconds
  read_data CPU = 0.185 seconds

kspace_style    pppm 1E-4
kspace_modify   mesh 32 32 32
pair_modify     mix arithmetic tail yes

timestep        ${dt}
timestep        1.0

minimize       1.0e-4 1.0e-6 100 1000
WARNING: Using 'neigh_modify every 1 delay 0 check yes' setting during minimization (../min.cpp:188)
PPPM initialization ...
  using 12-bit tables for long-range coulomb (../kspace.cpp:340)
  G vector (1/distance) = 0.26105858
  grid = 32 32 32
  stencil order = 5
  estimated absolute RMS force accuracy = 0.00040651563
  estimated relative force accuracy = 1.2242097e-06
  using double precision KISS FFT
  3d grid and FFT values/proc = 6210 2048
Neighbor list info ...
  update every 1 steps, delay 0 steps, check yes
  max neighbors/atom: 2000, page size: 100000
  master list distance cutoff = 14
  ghost atom cutoff = 14
  binsize = 7, bins = 5 6 7
  1 neighbor lists, perpetual/occasional/extra = 1 0 0
  (1) pair lj/cut/coul/long, perpetual
      attributes: half, newton on
      pair build: half/bin/newton
      stencil: half/bin/3d
      bin: standard
Per MPI rank memory allocation (min/avg/max) = 11.30 | 11.37 | 11.77 Mbytes
Step Temp E_pair E_mol TotEng Press 
       0            0    5737.4839    13044.405    18781.889    121888.59 
     100            0     3796.928    206.36609    4003.2941   -481.68665 
Loop time of 0.867625 on 24 procs for 100 steps with 4096 atoms

99.3% CPU use with 24 MPI tasks x no OpenMP threads

Minimization stats:
  Stopping criterion = max iterations
  Energy initial, next-to-last, final = 
       18781.888968343   4007.37389997888   4003.29412917587
  Force two-norm initial, final = 4316.1878 78.854913
  Force max component initial, final = 92.173676 6.1341309
  Final line search alpha, max atom move = 0.0053049776 0.032541427
  Iterations, force evaluations = 100 199

MPI task timing breakdown:
Section |  min time  |  avg time  |  max time  |%varavg| %total
---------------------------------------------------------------
Pair    | 0.39073    | 0.47047    | 0.58562    |   8.2 | 54.23
Bond    | 0.0089194  | 0.010451   | 0.012253   |   0.8 |  1.20
Kspace  | 0.18733    | 0.30298    | 0.38457    |  10.3 | 34.92
Neigh   | 0.010581   | 0.01061    | 0.010664   |   0.0 |  1.22
Comm    | 0.063145   | 0.064138   | 0.064953   |   0.2 |  7.39
Output  | 5.9084e-05 | 6.115e-05  | 9.8797e-05 |   0.0 |  0.01
Modify  | 0          | 0          | 0          |   0.0 |  0.00
Other   |            | 0.008913   |            |       |  1.03

Nlocal:        170.667 ave         193 max         155 min
Histogram: 3 2 6 3 1 1 4 3 0 1
Nghost:        5447.21 ave        5549 max        5295 min
Histogram: 2 4 1 1 0 0 2 6 4 4
Neighs:        80232.4 ave       96189 max       67454 min
Histogram: 2 4 4 2 3 2 2 1 2 2

Total # of neighbors = 1925577
Ave neighs/atom = 470.11157
Ave special neighs/atom = 6.0000000
Neighbor list builds = 3
Dangerous builds = 0

velocity        all create ${mytemp} ${seed}
velocity        all create 120.0 ${seed}
velocity        all create 120.0 242321

dump            1 all custom 10000 ${NAME}.lammpstrj id type xu yu zu
dump            1 all custom 10000 ar.120.lammpstrj id type xu yu zu
thermo_style    custom step vol temp press ke pe ebond eangle edihed eimp emol evdwl etail ecoul elong enthalpy density lx ly lz
thermo          200

fix             1 all npt temp ${mytemp} ${mytemp} $(100.0*dt) iso ${pressure} ${pressure} $(1000.0*dt)
fix             1 all npt temp 120.0 ${mytemp} $(100.0*dt) iso ${pressure} ${pressure} $(1000.0*dt)
fix             1 all npt temp 120.0 120.0 $(100.0*dt) iso ${pressure} ${pressure} $(1000.0*dt)
fix             1 all npt temp 120.0 120.0 100 iso ${pressure} ${pressure} $(1000.0*dt)
fix             1 all npt temp 120.0 120.0 100 iso 1.0 ${pressure} $(1000.0*dt)
fix             1 all npt temp 120.0 120.0 100 iso 1.0 1.0 $(1000.0*dt)
fix             1 all npt temp 120.0 120.0 100 iso 1.0 1.0 1000

run             2000000
PPPM initialization ...
  using 12-bit tables for long-range coulomb (../kspace.cpp:340)
  G vector (1/distance) = 0.26105858
  grid = 32 32 32
  stencil order = 5
  estimated absolute RMS force accuracy = 0.00040651563
  estimated relative force accuracy = 1.2242097e-06
  using double precision KISS FFT
  3d grid and FFT values/proc = 6210 2048
Per MPI rank memory allocation (min/avg/max) = 10.18 | 10.25 | 10.64 Mbytes
Step Volume Temp Press KinEng PotEng E_bond E_angle E_dihed E_impro E_mol E_vdwl E_tail E_coul E_long Enthalpy Density Lx Ly Lz 
     100        50160          120     853.2012    1464.7701    4003.2941     23.80214    136.98855    38.631836    6.9435628    206.36609    -2728.797   -77.446868    25796.028   -19270.303    6092.2083   0.95023294           30           38           44 
     200    50576.271    71.831597    798.34944    876.80643    4714.9762    210.16123    362.11019    194.95512     31.49765    798.72419   -2636.5511   -76.809437    25818.806   -19266.003    6180.6476   0.94241199     30.08276     38.10483    44.121382 
     400    52106.841    91.591865    506.80152    1118.0085    4858.4284    322.42033    431.91217    194.89933    33.250568     982.4824   -2558.8751   -74.553261    25731.952   -19297.131     6361.568   0.91472988     30.38321      38.4854    44.562042 
     600    52613.978     120.7229    155.76671    1473.5941    4865.6064    325.31211    391.73764    242.47766    37.838335    997.36574   -2509.1831   -73.834655    25698.335   -19320.911    6458.7236   0.90591296    30.481462    38.609852    44.706144 
     800    53182.458    122.78639   -363.69864    1498.7819    4979.6894    382.06453    396.59294    235.85155    38.064479    1052.5735   -2475.7531   -73.045418    25726.463   -19323.594    6196.3824   0.89622943     30.59085     38.74841     44.86658 
    1000    53094.249    108.16542   -969.50865    1320.3122    5063.8696    457.52963    455.91531    242.75747    40.177886    1196.3803   -2493.6729   -73.166774    25691.198   -19330.036    5633.4668    0.8977184    30.573928    38.726975    44.841761 
    1200     52556.57     122.0029    506.04949    1489.2183    4850.1541    349.34148    381.74093    232.61989    35.862398     999.5647   -2490.5513   -73.915305    25678.109   -19336.968     6727.251   0.90690249    30.470372    38.595804    44.689878 
    1400    52627.336     121.7701    789.92976    1486.3767    4885.0889    354.93575    414.57829    230.34973    41.748279     1041.612   -2491.2725   -73.815914     25667.08   -19332.331    6977.7491   0.90568302    30.484041    38.613119    44.709927 
    1600    52552.303    121.37443     897.9361     1481.547    4850.2157    349.95733    399.71824     231.1062    37.024384    1017.8062   -2502.6572   -73.921307    25665.781   -19330.714    7019.9601   0.90697613    30.469547    38.594759    44.688669 
    1800    52022.552    122.65646    689.00804    1497.1959    4791.0457    340.54175    420.29828    235.40958    38.769201    1035.0188   -2523.6816   -74.674054     25617.79   -19338.082     6810.989   0.91621195    30.366819    38.464637    44.538001 
    2000    52045.794    117.59305   -406.83106    1435.3898    4818.9594    342.55258    445.25103     240.4777    37.031939    1065.3133   -2538.9914   -74.640707    25628.264   -19335.627    5945.5504    0.9158028     30.37134    38.470365    44.544633 
    2200    51906.507    119.04988   -632.14861    1453.1725    4830.7787    372.46877     442.0131    241.85006    37.443832    1093.7758    -2550.392   -74.840999    25622.649   -19335.254    5805.4127   0.91826028    30.344223    38.436015     44.50486 
    2400    51546.021    121.79756    619.12246    1486.7118    4774.1785    350.39601    408.81581    236.20197    37.549797    1032.9636   -2544.9352   -75.364399    25622.681   -19336.531     6726.313   0.92468213    30.273813     38.34683    44.401593 
    2600    51433.172    117.02435    409.27371    1428.4481    4767.6694    344.14187    444.74898    243.61611    39.941105    1072.4481   -2580.6326   -75.529755    25611.186   -19335.332    6503.1137   0.92671095    30.251704    38.318826    44.369167 
    2800    50729.067    120.35605    -20.42559    1469.1162    4739.1379    344.26654     437.1627    243.20965    39.296778    1063.9357   -2590.8138   -76.578087    25600.914   -19334.898    6193.1425   0.93957344    30.113024    38.143164    44.165769 
    3000    50831.056    119.23492   -995.63616    1455.4312    4720.5239    350.01103    428.97197    248.15027    37.667736     1064.801   -2624.1668   -76.424438    25612.287   -19332.397    5437.8713   0.93768825    30.133191    38.168708    44.195347 
    3200     50880.24    119.04926   -341.93544     1453.165    4720.9136    349.28296    421.94504    238.71137    39.806946    1049.7463    -2598.455   -76.350561    25605.181   -19335.558    5920.3501   0.93678182    30.142907    38.181015    44.209597 
    3400     50783.17    119.75516    -130.3759    1461.7814    4740.1801      361.127    439.98082    244.35065    40.611487      1086.07   -2601.5232   -76.496502    25591.122   -19335.489    6105.4024   0.93857244    30.123726    38.156719    44.181464 
    3600    50633.814    119.72738   -416.31175    1461.4423     4701.072    343.61351    411.51275    239.61934    39.611257    1034.3569   -2597.6928   -76.722146    25598.637   -19334.229    5855.0921   0.94134097    30.094165    38.119275    44.138108 
    3800    50761.427    119.68373    -856.7407    1460.9095    4714.6657    359.80596    438.59135    243.79945    41.710401    1083.9072   -2606.4077   -76.529269    25572.238   -19335.072    5541.3272   0.93897447    30.119426    38.151272    44.175158 
    4000    50971.597    122.36133    121.35688    1493.5934    4725.3965    338.35898    447.60685    235.90647    39.927122    1061.7994   -2598.5434   -76.213717    25599.137   -19336.996    6309.2028   0.93510282    30.160937    38.203853    44.236041 
    4200    50970.731    121.50089    170.04778    1483.0906    4723.3655    353.21902    433.62289    251.60135    40.706878    1079.1501    -2604.179   -76.215013     25583.63   -19335.236    6332.8621   0.93511871    30.160766    38.203637     44.23579 
    4400    50489.823    119.56914    458.98275    1459.5107    4678.1615    349.32921    442.16279    245.23249    38.296954    1075.0214   -2632.0242   -76.940949    25571.686   -19336.522    6475.6406   0.94402558    30.065611    38.083107    44.096229 
    4600    50411.858    117.49829    323.26491    1434.2331    4691.4009    348.55395    432.07856    246.56216    40.513752    1067.7084   -2624.4925   -77.059942    25586.048   -19337.863    6363.3001   0.94548556    30.050127    38.063494     44.07352 
    4800    50783.691     119.7501   -341.17548    1461.7197    4714.8856    357.00599    447.67779    256.07525    42.521374    1103.2804   -2640.9658   -76.495717    25590.808   -19338.237    5923.9212   0.93856281    30.123829     38.15685    44.181615 
    5000    50484.976    118.18462    723.57464    1442.6108    4688.4477    358.62732    444.43871    245.52654     38.78886    1087.3814   -2617.8374   -76.948335    25560.528   -19341.625     6663.806    0.9441162    30.064649    38.081888    44.094818 
    5200     50376.94    120.80764    582.28213    1474.6284    4656.3955    333.67159    433.84113    252.40805    43.921822    1063.8426   -2626.0714   -77.113356    25557.442   -19338.818    6558.8243   0.94614092    30.043187    38.054704    44.063341 
    5400    50292.219    121.25744    184.84651     1480.119    4659.9316    350.48414    433.71952      255.475    41.339019    1081.0177   -2632.1045   -77.243258    25552.567   -19341.548    6275.6282   0.94773475    30.026336    38.033359    44.038627 
    5600     50210.45    119.35558   -337.64573    1456.9039    4646.1128    344.24019    432.78762    241.21975    40.794784    1059.0423   -2641.5333   -77.369051    25567.235   -19338.631    5855.7696   0.94927816    30.010055    38.012736    44.014747 
    5800    50026.191    121.17528   -164.34225     1479.116    4663.7786    353.06899    432.69636    247.63718     42.50063    1075.9032   -2629.8917   -77.654021    25550.915   -19333.148    6022.9937   0.95277459      29.9733     37.96618     43.96084 
    6000    50389.266    121.59754   -467.68418    1484.2703    4675.4561    362.65106    429.33415    259.88188    40.896275    1092.7634   -2652.5248   -77.094493    25572.871   -19337.653    5816.0366   0.94590948    30.045637    38.057807    44.066935 
    6200    50383.462    119.68255    107.25389    1460.8951    4689.6831    364.90656    434.81823    254.48522    42.849218    1097.0592   -2640.3154   -77.103374     25573.31   -19340.371    6229.3875   0.94601844    30.044484    38.056346    44.065243 
    6400    50187.564    119.61476    205.37009    1460.0677     4642.118    349.20664    434.24943    252.28372    41.135741    1076.8755   -2652.9864   -77.404333    25557.745   -19339.517     6252.503   0.94971106    30.005494    38.006959    44.008058 
    6600    49816.021    117.96097    32.747406    1439.8808    4630.5846    350.60542    420.49285    258.87589    40.998476    1070.9726   -2673.2548   -77.981637    25571.521   -19338.654    6094.2569   0.95679427    29.931266    37.912937    43.899191 
    6800     49669.06    120.52012    -187.8764    1471.1189    4647.2923    352.22601    427.57246    263.48409    48.119921    1091.4025   -2664.8788    -78.21237    25560.788   -19340.019    5982.3187   0.95962526    29.901804    37.875618    43.855979 
    7000    50204.385    120.16631   -534.36976    1466.8001     4648.483     355.6552    430.17301    261.10758    41.592627    1088.5284   -2654.5812   -77.378398    25552.881   -19338.345    5724.0286   0.94939285    30.008846    38.011205    44.012974 
    7200    50146.966    118.89176   -474.02458    1451.2424    4631.9779     352.1326    444.44847    251.90016    43.603723     1092.085   -2664.6968   -77.466998     25545.74   -19341.151    5736.5462   0.95047992    29.997401    37.996708    43.996189 
    7400    49791.104    120.71528    408.02544    1473.5011    4624.5817    343.38639    446.48709    267.06915    44.595293    1101.5379   -2655.1532   -78.020662    25521.697     -19343.5    6394.3713    0.9572731    29.926275    37.906615     43.89187 
    7600    49896.024    119.67214   -478.47472     1460.768    4577.6993    341.63633    436.26292    242.80797    43.644139    1064.3514   -2702.3612   -77.856602    25556.151   -19340.442    5690.2897   0.95526016    29.947281    37.933222    43.922678 
    7800    49561.145    120.09758    156.23169    1465.9611    4600.6278    356.09562     431.8705    255.85247     41.22682    1085.0454   -2677.3519    -78.38267    25533.999   -19341.065    6179.5129   0.96171474    29.880133    37.848168    43.824195 
    8000    49501.491    119.59089   -298.98595    1459.7763    4611.5036     355.9211    449.77576    250.54932    45.276191    1101.5224   -2689.3673   -78.477128    25537.271   -19337.923    5855.4334    0.9628737     29.86814    37.832977    43.806605 
    8200    49399.947     119.5378    511.49396    1459.1283    4553.8917    345.15326    423.45608    245.11656    44.052797    1057.7787    -2675.402   -78.638442    25515.404   -19343.889    6381.5245   0.96485293    29.847703     37.80709     43.77663 
    8400    49540.992    118.86484    298.36239    1450.9138    4582.2356    353.00196    436.47938    255.32284    43.975306    1088.7795    -2681.548   -78.414556    25514.182   -19339.178    6248.7176   0.96210597    29.876082    37.843037    43.818254 
    8600    49781.117    120.01022     252.2309    1464.8948    4614.9013    350.67695    439.38772    269.37515    48.355537    1107.7954   -2682.8162   -78.036314    25533.165   -19343.243    6262.9174   0.95746514    29.924274    37.904081    43.888935 
    8800    49930.462    118.26189   -136.30862     1443.554    4622.0574    353.28495    436.65807    275.29112    42.193797    1107.4279    -2691.508   -77.802902    25547.327   -19341.189    5966.3536   0.95460129    29.954169    37.941947    43.932781 
    9000    49438.756    121.79378    55.268575    1486.6656    4618.1889     358.4578     436.4001    266.61632    49.983063    1111.4573   -2698.3302   -78.576713    25544.956   -19339.894     6144.704   0.96409555    29.855516    37.816988    43.788091 
    9200    49382.351     119.7496   -470.11782    1461.7136    4580.7018     355.9122    430.18524      264.225    45.834762    1096.1572    -2706.951   -78.666462    25534.864   -19343.369    5703.8408   0.96519673    29.844158      37.8026    43.771432 
    9400    49661.212    120.24303   -665.09665    1467.7366    4596.2313    350.20724    435.61338    261.95107    47.347411    1095.1191   -2696.3066    -78.22473    25539.076   -19341.657    5582.2665    0.9597769    29.900229    37.873624    43.853669 
    9600    49637.725    121.47326    451.06125    1482.7533    4629.9009    355.74233     454.0337    266.71187    46.599888    1123.0878   -2692.4419   -78.261744    25539.967   -19340.712    6439.1844   0.96023104    29.895515    37.867652    43.846755 
    9800    49593.183      119.535    438.58615    1459.0941    4573.5885    343.36544    448.11444    260.82902    39.855745    1092.1646    -2699.698   -78.332034     25526.42   -19345.298     6349.897   0.96109346     29.88657    37.856322    43.833636 
   10000     49330.14    117.96228   -71.731015    1439.8967    4580.5672    348.59198    448.96231    258.74828    46.981603    1103.2842    -2703.029   -78.749724    25523.347   -19343.035    5968.8586   0.96621831    29.833637    37.789273       43.756 
   10200    49279.066    121.55524   -415.76382     1483.754    4575.4013    353.24946    427.86481    270.63703    43.130551    1094.8819   -2713.5558   -78.831342     25537.73   -19343.655    5760.3522   0.96721972    29.823337    37.776227    43.740894 
   10400    49484.313    121.09693   -465.41549    1478.1597    4578.8814    363.88297    430.60805     260.3149    44.382203    1099.1881   -2704.6325   -78.504372    25528.538   -19344.212     5721.161   0.96320796    29.864684      37.8286    43.801537 
   10600    49353.164    117.84197   -309.33308    1438.4283    4576.6667     354.5176    459.85476    262.85993    46.789711     1124.022     -2705.15   -78.712986     25504.08   -19346.285    5792.4478   0.96576755    29.838277    37.795151    43.762807 
   10800    49195.605    121.00421    58.806743    1477.0279    4570.5611    370.39206    440.31728    271.77964    46.893694    1129.3827     -2720.07   -78.965081    25503.703   -19342.455    6089.7809   0.96886062    29.806491    37.754888    43.716186 
   11000    49372.446    123.54756    102.89829    1508.0731    4564.5963    352.31095    457.46179     267.8159    49.967935    1127.5566   -2757.0993   -78.682244    25539.474   -19345.335    6146.7609   0.96539036    29.842163    37.800073    43.768505 
   11200    48785.193    118.34609    1126.2526    1444.5818    4565.5707    351.09712    458.79974    267.30627    45.215751    1122.4189   -2737.0318   -79.629385    25525.616   -19345.432    6811.4609   0.97701129    29.723373    37.649605     43.59428 
   11400    49123.312    119.47816    377.78175    1458.4002    4526.2742    338.85682    448.24165     254.6408    43.255715     1084.995   -2713.0692   -79.081289    25497.593   -19343.245    6255.3223   0.97028644    29.791883    37.736386    43.694762 
   11600    49628.774    119.24462    -590.1224    1455.5495    4583.5567    359.00074    453.62979    261.87284     47.39058    1121.8939   -2712.6615   -78.275858    25519.084    -19344.76    5611.9847   0.96040422    29.893718    37.865376    43.844119 
   11800    49236.403    119.81503   -499.05966    1462.5122    4566.7257    361.20116    456.57326    271.42735    43.581387    1132.7832   -2728.7743   -78.899648    25505.188   -19342.471    5670.8819    0.9680578    29.814728    37.765322    43.728268 
   12000    49172.305     118.6857   -74.247218    1448.7272    4549.0584     360.1031    443.08886    266.20262    46.566403     1115.961   -2729.6368   -79.002498    25506.103   -19343.369    5944.5408   0.96931971    29.801784    37.748927    43.709284 
   12200    49228.712    120.19299   -49.329553    1467.1258    4554.5257    357.78644     445.5822    265.58271    46.457926    1115.4093   -2726.9576   -78.911975    25507.852   -19341.778    5986.2353   0.96820904    29.813176    37.763356    43.725991 
   12400    48919.994    120.07696    131.43182    1465.7095    4534.4865    346.18099    443.74707    262.18661    44.007542    1096.1222   -2708.2779   -79.409963    25490.697   -19344.055    6093.9658   0.97431909    29.750724    37.684251    43.634396 
   12600    49087.767    118.61504   -741.16612    1447.8647    4506.1118    354.60211    415.05184    260.87758    45.014263    1075.5458   -2750.0925   -79.138554     25522.64   -19341.982    5423.3796   0.97098905    29.784696    37.727281    43.684221 
   12800    48901.939    121.17611   -86.763374    1479.1261    4557.1774    345.71259    468.34887    275.54283    40.202728     1129.807   -2732.5262   -79.439281    25503.871   -19343.974    5974.4252   0.97467881    29.747064    37.679614    43.629027 
   13000    48909.851    120.28968     330.4892     1468.306    4542.0378    350.52208    444.50753    265.94347    45.798311    1106.7714   -2755.5956   -79.426431    25535.291   -19344.429    6246.0817   0.97452115    29.748668    37.681646     43.63138 
   13200    48711.326     119.7448    409.28342     1461.655    4525.4447    349.78284    446.64088    272.41332    43.910129    1112.7472   -2754.9109   -79.750136     25513.47   -19345.862    6277.8566   0.97849285    29.708364    37.630594    43.572266 
   13400    48724.249    116.96645   -33.157352    1427.7413    4513.7255    346.01545    437.81927     278.3733    44.213418    1106.4214   -2734.7031   -79.728985    25488.581   -19346.574    5917.9055   0.97823333     29.71099    37.633921    43.576119 
   13600    49138.347    119.92631    -405.2828    1463.8705    4544.0203    358.54767    458.47012     267.7792    46.036433    1130.8334   -2751.3999   -79.057093    25507.667    -19343.08     5717.452   0.96998956    29.794923    37.740235     43.69922 
   13800    48864.212    119.80691    496.80284    1462.4132    4563.2312    369.07286       450.28    262.91662    45.379642    1127.6491   -2724.6108   -79.500615    25504.835   -19344.642    6379.6832   0.97543135    29.739412    37.669922    43.617804 
   14000    49074.088    115.53531    190.33557    1410.2721    4550.7233     380.4169    466.15876    256.81078    45.049019    1148.4355   -2727.2673   -79.160613    25474.654   -19345.099    6097.2177    0.9712597    29.781929    37.723777    43.680163 
   14200    49034.743    117.74701    174.78541    1437.2691     4564.902    379.77512     450.8921     259.5301    45.258096    1135.4554   -2746.8707    -79.22413    25522.531   -19346.213    6127.1638   0.97203902    29.773968    37.713693    43.668486 
   14400    48895.254    122.48078    403.86675    1495.0515    4535.5665    378.05911    463.76979    253.91141    40.522735     1136.263   -2740.7431   -79.450143    25486.515   -19346.468    6318.6101   0.97481208    29.745708    37.677897    43.627039 
   14600    49073.593    118.79605    152.16041    1450.0741    4526.0371    358.87674    447.04278     262.3198    45.567471    1113.8068   -2750.9372   -79.161412    25510.534   -19347.367    6085.0106   0.97126951    29.781829     37.72365    43.680016 
   14800    48919.132    119.85144    212.78039    1462.9567    4554.3304    365.42991    455.01678     265.2201    39.971087    1125.6379   -2732.1267   -79.411361    25505.568   -19344.749    6169.0921   0.97433625     29.75055     37.68403     43.63414 
   15000     48846.97    120.33313   -526.12492    1468.8364      4520.15    366.36411    459.18417    257.43413    47.091571     1130.074   -2763.3214   -79.528677    25496.805   -19343.407     5614.184   0.97577565    29.735914    37.665491    43.612674 
   15200    48757.043    119.93051    113.32467    1463.9219    4529.0773    376.46891    446.41533    267.22014    41.505385    1131.6098   -2765.7133   -79.675358    25509.327   -19346.146    6073.5811   0.97757536    29.717655    37.642363    43.585894 
   15400    48646.236    119.26514    196.13579    1455.8001    4545.2205     375.2744    460.17926    276.23836    41.859525    1153.5515   -2767.3454   -79.856844    25504.448   -19345.434    6140.1702   0.97980209    29.695125    37.613825     43.55285 
   15600    48522.136    116.83561    410.79127    1426.1442      4522.23    354.24158    453.89557    259.95306    47.196705    1115.2869   -2740.1754   -80.061085    25493.322   -19346.204    6239.0688   0.98230803    29.669852    37.581813    43.515783 
   15800    48911.949    119.02951   -712.27738    1452.9238    4527.1676    368.66907    465.90145    275.09185    45.080847    1154.7432   -2774.7478   -79.423024    25491.424   -19344.252    5472.0021   0.97447934    29.749093    37.682185    43.632004 
   16000    48773.213    122.46188   -155.72293    1494.8208    4550.2683     368.4074    451.22929    273.52043    46.511601    1139.6687   -2754.4802   -79.648944    25510.043   -19344.963    5934.3222   0.97725127    29.720939    37.646523    43.590711 
   16200    48784.707    118.38113     197.6834    1445.0094    4554.7869    365.48202    453.05869    273.58541    47.589326    1139.7154   -2766.4953   -79.630178     25525.88   -19344.313    6140.4431   0.97702102    29.723274     37.64948    43.594135 
   16400    48689.977    120.39858   -76.586046    1469.6353    4542.9656    374.29903    449.87051    272.07783    46.315075    1142.5624   -2756.4419   -79.785105    25502.931   -19346.086    5958.2176   0.97892189    29.704023    37.625095      43.5659 
   16600    48820.125    123.52042   -71.599207    1507.7418    4501.1724    371.39001    418.39292    267.29945    45.101509    1102.1839   -2758.3431   -79.572408    25504.338   -19347.006    5957.9362   0.97631222    29.730465    37.658589    43.604682 
   16800    48682.995    118.23804    397.93665    1443.2628    4521.2295    363.60263    447.03902    270.33293    45.311778    1126.2864   -2742.6602   -79.796547    25485.177   -19347.573    6247.0239   0.97906228    29.702603    37.623297    43.563818 
   17000    48681.086    119.62897    211.05221    1460.2411    4554.0734     400.6103    441.06809    273.73876    47.002741    1162.4199   -2767.1854   -79.799676    25503.644   -19344.805    6164.1539   0.97910068    29.702215    37.622805    43.563248 
   17200    48815.701    121.34476   -117.38952    1481.1848     4529.812    380.53451    443.82974     289.8561    43.087364    1157.3077   -2770.3472   -79.579619    25487.802   -19344.951     5927.424   0.97640068    29.729567    37.657452    43.603366 
   17400    48621.973    117.31445    306.18431    1431.9891     4526.512    372.75021    451.08249    264.74588    44.252042    1132.8306   -2774.7037   -79.896694    25511.039   -19342.654    6175.6169   0.98029104    29.690187    37.607571    43.545608 
   17600    48436.952     120.5173     711.2272    1471.0844    4521.4476    369.93802    449.74671    274.09771    43.417615    1137.2001   -2764.9791   -80.201886    25492.962   -19343.735    6494.9452   0.98403559    29.652479    37.559807    43.490303 
   17800    48810.378    121.04274   -157.81868    1477.4981    4542.8748    374.70809     445.5909    275.65024    47.335748     1143.285   -2770.8711   -79.588298    25515.587   -19345.127    5908.0298   0.97650718    29.728487    37.656083     43.60178 
   18000    48518.953    119.79428   -148.09823    1462.2589    4533.2712    375.47942    461.02513    286.50553    45.865935     1168.876   -2776.4608   -80.066338    25484.125   -19343.269    5890.7359   0.98237247    29.669203    37.580991    43.514832 
   18200    48448.862     117.0612    357.43213    1428.8979    4509.3847    369.89265    438.70353    274.55881    47.754683    1130.9097    -2775.051    -80.18217    25500.777   -19347.251    6190.8358   0.98379368     29.65491    37.562886    43.493868 
   18400    48818.249    119.44511    453.17165    1457.9968    4536.1741    373.25444    441.38289    281.08717    47.741285    1143.4658   -2751.5391   -79.575466    25490.377   -19346.129    6316.8128   0.97634973    29.730085    37.658107    43.604124 
   18600    48794.868    120.09394   -251.95934    1465.9167    4544.3857    371.37234    455.40971    276.99561    48.947738    1152.7254   -2753.2512   -79.613596    25491.361    -19346.45    5831.0023   0.97681757    29.725337    37.652094    43.597162 
   18800    48337.295    118.82838   -62.271365    1450.4688    4494.4286    368.05519    452.70364    282.97369    42.866952    1146.5995   -2775.4226   -80.367239    25468.383   -19345.131    5900.9992   0.98606437    29.632129     37.53403    43.460456 
   19000    48343.178    115.07892    207.52125    1404.7013    4471.0066    364.44443    428.23146    262.43552     46.10354    1101.2149   -2795.1562   -80.357458    25510.116   -19345.168    6022.0178   0.98594437    29.633331    37.535553    43.462219 
   19200    48352.715    119.84972    471.44033    1462.9357    4475.3833     372.9765    446.91341      274.483    41.800415    1136.1733   -2782.5563   -80.341608    25469.283   -19347.517    6270.7668   0.98574989     29.63528    37.538021    43.465077 
   19400    48415.404    118.89338    20.222302    1451.2622    4509.1391    383.53221    447.08209    277.37235    44.563716    1152.5504   -2792.4159   -80.237581    25492.833   -19343.828    5974.6801   0.98447354    29.648082    37.554237    43.483853 
   19600    48426.758    121.13495   -263.14071    1478.6238    4509.4649    377.94826    456.95972    279.49424     49.35857    1163.7608   -2804.1199   -80.218769    25495.066   -19345.242    5802.2444   0.98424273    29.650399    37.557172    43.487252 
   19800    48464.821    120.35209   -198.69898    1469.0678    4479.4439    371.59302    457.03359    268.76112    45.349677    1142.7374   -2799.1188   -80.155767    25478.549   -19342.723    5808.0693   0.98346973    29.658165    37.567009    43.498643 
   20000    48462.383    119.87636   -415.51953    1463.2609    4476.5682    373.77168    444.38896    272.77969    46.642833    1137.5832   -2805.5534     -80.1598    25490.348    -19345.81    5646.1506   0.98351921    29.657668    37.566379    43.497913 
   20200    48134.138    119.66832    630.99785    1460.7214    4491.0912    384.37438     452.4132     270.2511    45.780079    1152.8188   -2791.0553    -80.70644    25471.877   -19342.549    6394.7649   0.99022619    29.590557    37.481373    43.399484 
   20400    48284.176    119.96725    683.29351    1464.3704    4477.3836    364.03515    439.50802    266.89385    44.609365    1115.0464   -2806.2067   -80.455653    25512.066   -19343.522    6422.9123   0.98714917    29.621271    37.520276     43.44453 
   20600    48472.525    121.67291   -304.09734    1485.1904    4518.4012    392.37766    457.16301    280.80706    47.266107    1177.6138   -2795.9558   -80.143027    25481.483   -19344.739    5788.6184   0.98331341    29.659737       37.569    43.500947 
   20800    48366.175    121.28093   -1142.7226    1480.4057    4498.5126    388.98137    445.29196    279.68275    47.296979    1161.2531   -2800.2206   -80.319249    25479.486   -19342.006    5172.8748   0.98547557     29.63803    37.541504     43.46911 
   21000     48293.74    118.58338   -776.11052    1447.4783    4498.3329    377.93438    465.81234    293.69584    49.139779    1186.5823   -2795.8231   -80.439719     25452.73   -19345.156    5399.1851   0.98695366    29.623227    37.522754    43.447399 
   21200    48241.813    121.13103    76.262267    1478.5759    4504.9125    374.59381      452.741    280.72355    47.681321    1155.7397   -2803.2333   -80.526304    25494.892   -19342.486    6037.1433   0.98801602    29.612605      37.5093    43.431821 
   21400    48250.654    121.81385    650.63747    1486.9107    4500.3252    367.90144    473.48392    277.68263    46.714165    1165.7822   -2801.3522   -80.511548    25481.466    -19345.57    6445.0805   0.98783498    29.614414    37.511591    43.434474 
   21600     48464.12    118.37057    482.55683    1444.8806    4498.1219    372.04541    441.66254    290.16799    48.264622    1152.1406   -2805.5731   -80.156926    25495.479   -19343.924    6284.0734   0.98348395    29.658022    37.566828    43.498433 
   21800    48270.866    122.78163    175.02674    1498.7238    4498.7762    388.48706    443.49312    285.30035    49.898448     1167.179   -2811.3431   -80.477837    25488.134   -19345.193    6120.7155   0.98742136    29.618549    37.516828    43.440538 
   22000    48044.674    121.13911    198.38524    1478.6745    4465.7221    373.36954    443.86528     274.2908    42.314142    1133.8398   -2797.6412   -80.856724    25476.733   -19347.209    6083.4016    0.9920701    29.572213    37.458137    43.372579 
   22200    48404.659     121.7266   -425.63833    1485.8457    4452.7449    385.09613    432.61484      276.477    41.479083    1135.6671   -2805.1679   -80.255392    25468.407   -19346.162    5638.1187   0.98469208    29.645888    37.551458    43.480636 
   22400    48228.743    124.38371   -343.07532    1518.2795    4467.9533     389.0971    437.38812    275.66492    44.690659    1146.8408   -2801.4396   -80.548126    25468.421   -19345.869     5744.925   0.98828377    29.609931    37.505912    43.427899 
   22600    47995.047    118.67134   -304.40836    1448.5519     4471.508    385.86478    457.66377    266.62709    43.677976    1153.8336   -2799.0637   -80.940329    25464.705   -19347.967    5706.9868    0.9930959    29.562028    37.445235    43.357641 
   22800    48504.442    118.79654   -874.16175    1450.0801    4494.6684    381.70391    451.60308    280.13357    45.529493    1158.9701   -2814.6665   -80.090292    25497.089   -19346.724    5326.3774   0.98266638    29.666245    37.577244    43.510493 
   23000    48316.734    121.59361    194.42751    1484.2223    4492.4104    383.63002    438.93659    276.35454    43.529363    1142.4505   -2796.3341   -80.401438    25492.582   -19346.288     6113.636   0.98648398    29.627927    37.528708    43.454293 
   23200     48040.11     118.2584    635.34174    1443.5114     4486.433    390.58737    447.01852    294.99957     45.14751     1177.753   -2819.8634   -80.864405    25477.356   -19348.813    6375.0748   0.99216434    29.571277    37.456951    43.371206 
   23400    48197.428    119.26368   -104.34542    1455.7822    4471.0155    378.77035    463.76882    282.76563    47.832394    1173.1372   -2813.8084    -80.60046    25460.985   -19349.298    5853.4523   0.98892588    29.603521    37.497793    43.418497 
   23600    48218.072    121.85853   -1011.7329     1487.456    4498.6056    402.08071    457.63358    282.01097    43.315751     1185.041   -2823.4749   -80.565952    25481.996   -19344.956    5274.5997   0.98850248    29.607747    37.503146    43.424695 
   23800    47820.446     119.7478   -336.85485    1461.6916    4448.9956     382.9822    454.94823    273.79446    46.040514    1157.7654   -2811.0101   -81.235857    25447.053   -19344.813    5675.7606   0.99672187    29.526136    37.399773       43.305 
   24000    48173.113    121.09523   -512.60326    1478.1389     4441.804    385.71316    431.76736    265.22149    38.921877    1121.6239   -2818.5135   -80.641144    25482.038   -19343.345    5559.8107   0.98942505    29.598542    37.491486    43.411195 
   24200    48157.814    122.04833    35.531079    1489.7729    4465.3484    388.97852    439.79242    278.57286     50.20592    1157.5497   -2821.5681   -80.666762     25475.39   -19346.023    5980.0759   0.98973937    29.595408    37.487517    43.406599 
   24400     47982.83    117.66064    433.12705    1436.2148    4491.5307    397.41893    443.49007     281.9341    44.808193    1167.6513   -2796.3174   -80.960937    25468.351   -19348.154    6230.8394   0.99334875    29.559519    37.442058    43.353961 
   24600    48130.273    119.72577    284.10283    1461.4227    4447.3787    377.30226    439.33948    273.00273    45.602283    1135.2468    -2801.599   -80.712921    25459.607   -19345.876    6108.2219   0.99030571    29.589765    37.480369    43.398322 
   24800    48283.911    121.48886     120.6849    1482.9436    4486.5919    379.85354    443.83733    291.32808    44.862245    1159.8812   -2794.7173   -80.456095    25467.841   -19346.413    6054.5184   0.98715459    29.621217    37.520208    43.444451 
   25000    48062.857    119.59434   -129.46583    1459.8184    4496.4704    399.87494    451.05903    271.61422     44.85584     1167.404   -2784.2198   -80.826133    25460.568   -19347.281      5865.54   0.99169477    29.575943    37.462862     43.37805 
   25200    48504.972    120.58394   -835.13759    1471.8979    4449.7192    396.68718    443.74372    273.58627    43.810051    1157.8272   -2804.2515   -80.089416    25444.809   -19348.665    5330.8448   0.98265564    29.666353    37.577381    43.510652 
   25400    48270.657    118.06435    192.73117    1441.1427    4477.5644    394.16588    456.08481    282.69615    44.972323    1177.9192   -2808.5824   -80.478185    25456.847   -19348.619    6054.3856   0.98742563    29.618506    37.516774    43.440476 
   25600    48133.537     119.1376    447.49121    1454.2432    4515.6667    388.16282     485.3809    276.46878    44.335868    1194.3484   -2806.5601   -80.707447     25473.63   -19345.751    6284.0391   0.99023855    29.590434    37.481217    43.399304 
   25800    48181.962    120.17615    436.36457    1466.9203    4464.9806    384.41639    457.22268      264.997    45.884035    1152.5201   -2810.3872   -80.626333    25469.328   -19346.481    6238.5274   0.98924333    29.600354    37.493782    43.413853 
   26000     48209.99    119.59975   -490.93345    1459.8844    4448.0267     385.8533    447.62126    266.78571     42.34164    1142.6019   -2798.7624   -80.579458    25453.223   -19349.036    5562.7392    0.9886682    29.606093    37.501051    43.422269 
   26200    48017.581    119.50054   -380.01648    1458.6734    4460.7302    387.56396    457.39305    269.16268    44.576726    1158.6964   -2795.3217   -80.902345    25444.744   -19347.389    5653.2829   0.99262985    29.566653    37.451094    43.364425 
   26400    48117.116    121.19306   -179.66995     1479.333    4507.0397    399.63052    456.65511    288.06781    42.740839    1187.0943    -2808.821   -80.734989    25476.885   -19348.119    5860.2914   0.99057648    29.587069    37.476954    43.394368 
   26600    48117.482    120.24016    509.46407    1467.7016    4466.2333    393.29234    451.87943     275.0998    42.533715    1162.8053   -2831.7292   -80.734377    25482.959   -19347.802    6291.4483   0.99056897    29.587144    37.477049    43.394478 
   26800    47930.701    119.68828    524.94798    1460.9651    4457.4817    390.38786    458.75085    272.88033    43.762992     1165.782   -2828.2124   -81.048989    25466.152    -19346.24     6285.396    0.9944291    29.548811    37.428494    43.338256 
   27000    47918.071    119.75622    -558.7275    1461.7944    4485.7285    396.23463     458.4517    293.54727    46.890175    1195.1238   -2816.0502   -81.070352    25456.605    -19349.95     5557.064    0.9946912    29.546215    37.425206    43.334449 
   27200    48234.518    121.83176   -1019.2391    1487.1292    4452.5961    384.10653    469.04516    273.08348    47.863707    1174.0989    -2824.176   -80.538482    25451.076   -19348.403    5222.7406   0.98816544    29.611113    37.507409    43.429632 
   27400    47921.993      118.786   -286.34623    1449.9514    4449.0881    394.47811    453.89702    276.37056    42.870136    1167.6158   -2820.7141   -81.063718    25449.747   -19347.561    5698.9142   0.99460981    29.547021    37.426227    43.335631 
   27600    47872.589    118.91162    742.67244    1451.4848    4479.6384    409.02901    454.26794    281.62469    50.011754    1194.9334    -2825.946   -81.147375    25458.145   -19347.494    6449.6368   0.99563624    29.536864    37.413361    43.320734 
   27800    48310.314    118.39163    283.30779    1445.1376    4414.5467    371.17582    450.89694    265.14405    40.923971    1128.1408   -2829.8991   -80.412122    25467.599   -19351.294    6059.2907   0.98661507    29.626615    37.527046    43.452369 
   28000    47902.459     119.7069    465.10077    1461.1923    4460.8822    397.32767    459.86375    279.85777    46.812259    1183.8615   -2823.4831   -81.096774    25451.837   -19351.333    6246.9977    0.9950154    29.543006    37.421141    43.329742 
   28200    47850.072    120.78586   -146.54453    1474.3626    4403.1325    385.41562    455.30229    267.55446    46.827592       1155.1   -2846.8911   -81.185561    25443.056   -19348.132    5775.2298   0.99610476    29.532232    37.407494    43.313941 
   28400    47685.466    119.67754    116.51622    1460.8339    4420.2762    377.96196    447.08707    274.35134    45.920551    1145.3209   -2843.2812   -81.465805    25465.882   -19347.646    5962.1406   0.99954321     29.49833    37.364551    43.264217 
   28600    47738.276    121.29231   -119.91846    1480.5446    4437.7848    411.97507    444.98905    270.44136    49.998683    1177.4042   -2855.8643   -81.375685    25464.802   -19348.557    5834.8405   0.99843749    29.509215    37.378339    43.280182 
   28800    47975.016    121.82136   -364.24952    1487.0024    4439.5429     390.3251    444.59056    272.79729     47.38507     1155.098   -2829.1832   -80.974124    25460.886   -19347.258    5671.6922   0.99351054    29.557914    37.440025    43.351608 
   29000    48050.679    120.12604   -705.59701    1466.3086    4472.7841    406.74003    483.44489    270.40631     44.94476     1205.536   -2825.2858   -80.846617    25443.351   -19350.817    5444.6315    0.9919461    29.573445    37.459697    43.374386 
   29200    47704.808    120.07951    -478.9877    1465.7406    4415.2645    388.82219    452.77776    266.60303    48.862537    1157.0655   -2854.8006   -81.432775    25462.565   -19349.565     5547.761   0.99913795    29.502317    37.369602    43.270065 
   29400    47581.085    120.73054   -48.336111    1473.6873    4402.7299    377.29005    457.34837    272.04436    45.776174     1152.459   -2849.3514   -81.644521    25447.998   -19348.376    5842.8757     1.001736     29.47679    37.337268    43.232626 
   29600    48150.443    117.90756   -750.62335    1439.2288    4504.6268     417.8662    464.50161    276.36145    45.408831    1204.1381   -2826.2703   -80.679109    25472.677   -19345.918    5416.7493   0.98989086    29.593898    37.485604    43.404384 
   29800    47842.966    120.21911   -24.573682    1467.4446    4466.5078    407.85955    461.16103    282.07791    49.132712    1200.2312    -2834.766   -81.197618    25447.712    -19346.67    5916.8063    0.9962527     29.53077    37.405643    43.311797 
   30000    47657.972    119.04737    711.34384    1453.1418     4432.924    383.55887    450.36057    277.38436      46.5005    1157.8043   -2832.0658   -81.512804    25454.472   -19347.287    6380.4801    1.0001199    29.492659    37.357368      43.2559 
   30200    47995.859    119.68712    293.56129    1460.9509    4445.1581    385.27627    463.28989     293.1367    49.819516    1191.5224   -2849.7916    -80.93896    25451.075   -19347.648    6111.5932    0.9930791    29.562194    37.445446    43.357885 
   30400    47771.839    121.79614     779.1227    1486.6945    4459.6727    392.43651     461.6002    291.06592    47.714007    1192.8166    -2838.082   -81.318513     25451.84   -19346.902    6489.1845   0.99773602    29.516129    37.387097    43.290322 
   30600    47744.744    118.62407    961.32282    1447.9748    4451.2011    385.67687     465.4944    282.67501     48.44324    1182.2895   -2834.9039   -81.364661    25452.624   -19348.808    6568.5528   0.99830222    29.510548    37.380027    43.282136 
   30800    47958.203    121.57305    53.921795    1483.9714    4436.0867    381.58876    457.38109      274.034    42.690808    1155.6947   -2859.5887   -81.002512    25486.039   -19346.058    5957.7721   0.99385885    29.554461    37.435651    43.346543 
   31000    47696.221      121.927   -241.52967    1488.2919    4463.0012    403.46802    470.60656    278.83507    47.593077    1200.5027   -2835.3013   -81.447436    25445.774   -19347.974    5783.2849   0.99931784    29.500547    37.367359    43.267469 
   31200    47913.118    116.78488   -604.80481     1425.525    4457.2654    400.81502    482.27746    284.12919     44.45821    1211.6799   -2859.8643   -81.078732    25454.127   -19348.678    5460.1748   0.99479403    29.545197    37.423916    43.332956 
   31400    47578.813    121.91375    1.7262873    1488.1301    4422.9141    401.98185     453.8025    261.72693    48.812926    1166.3242   -2840.8842    -81.64842    25446.109   -19348.635    5912.2421    1.0017838    29.476321    37.336673    43.231938 
   31600    47989.804     119.2941   -362.68055    1456.1535    4400.8478    383.80779    441.01561    270.62123     45.16826    1140.6129   -2856.2865   -80.949172    25465.515   -19348.994    5603.1677    0.9932044    29.560951    37.443871    43.356062 
   31800    47758.985    120.59203   -277.99519    1471.9966    4434.8133    409.35358    449.46379    275.26047    47.410228    1181.4881   -2831.3796   -81.340398    25434.432   -19349.727    5713.1819   0.99800454    29.513481    37.383743     43.28644 
   32000     47645.34    121.10013   -181.19135    1478.1987    4414.9657    397.34807    464.30307    263.16894    45.653398    1170.4735   -2843.6683   -81.534415     25437.69   -19349.529     5767.262     1.000385    29.490053    37.354067    43.252078 
   32200    47849.066    120.57147    175.80202    1471.7456    4414.2452    387.54262     456.6668     275.3472    45.790971    1165.3476   -2836.6232   -81.187267    25436.597   -19351.076    6008.6706   0.99612569    29.532025    37.407232    43.313637 
   32400    47931.805    121.54039   -305.93583    1483.5727    4455.7623    428.66264    468.52314    279.04771    44.916629    1221.1501   -2842.7607   -81.047123    25426.038   -19348.665    5725.4747    0.9944062    29.549038    37.428781    43.338588 
   32600    47784.626    118.55126   -646.73572    1447.0861     4438.898    409.78062    451.71959    284.10323    49.792615    1195.3961   -2858.7738   -81.296751    25452.824   -19350.548    5435.2806   0.99746901    29.518762    37.390432    43.294185 
   32800    47435.232    119.54416   -383.15186    1459.2058      4411.33    404.39686    457.22703     279.8585    41.482872    1182.9653   -2855.5498    -81.89556    25434.687   -19350.772    5605.4736    1.0048161    29.446641    37.299078    43.188406 
   33000    47582.143    120.58574   -264.98311    1471.9198    4411.0937    416.18686    446.63061     262.2923     43.84883    1168.9586   -2861.9901   -81.642706    25455.176    -19351.05     5699.132    1.0017137    29.477009    37.337544    43.232946 
   33200    47735.439    121.42845   -612.92233    1482.2063    4442.4382    413.35354    471.80941    265.53166    44.054456    1194.7491   -2849.4539   -81.380522    25448.924   -19351.781    5497.9449   0.99849683     29.50863    37.377598    43.279324 
   33400     47753.71    118.06098    -561.2769    1441.1016    4421.1389    406.83642    465.10828    265.56506    39.306081    1176.8158   -2854.8003   -81.349384    25447.722   -19348.598    5471.3455   0.99811479    29.512395    37.382367    43.284846 
   33600    47612.964    121.33122    478.96187    1481.0195    4401.7857    390.71688    465.31771     263.2355    42.588071    1161.8582   -2852.3699   -81.589856     25440.12   -19347.822    6215.3898    1.0010653    29.483372    37.345605    43.242279 
   33800    47603.361    119.50776    581.13327    1458.7616    4427.6045    405.39926    463.22018    277.17853    44.614786    1190.4128   -2864.2246   -81.606316    25451.973   -19350.556    6289.8156    1.0012672     29.48139    37.343094    43.239371 
   34000    47807.672    117.59921    -106.2708    1435.4651    4409.0545    402.75207    464.83823    268.72065    45.961831    1182.2728   -2846.8575   -81.257563    25425.046   -19351.407    5770.4248   0.99698819    29.523507    37.396442    43.301143 
   34200    47719.684    120.23672   -272.20553    1467.6595    4428.1443    399.28647    469.71717    276.51262    45.805037    1191.3213   -2837.3659   -81.407388    25422.421   -19348.232    5706.3644   0.99882647    29.505384    37.373486    43.274563 
   34400    47683.573    120.65343    516.44127    1472.7461    4429.5912     420.2329    453.63265    277.70937    44.712415    1196.2873   -2855.5414   -81.469039    25440.535    -19351.69    6261.4788   0.99958289    29.497939    37.364056    43.263644 
   34600    47605.297    117.36007    1379.9093    1432.5459     4448.951    410.60271    464.64956    274.66899     47.65684    1197.5781    -2841.168   -81.602996    25443.279   -19350.738    6839.5327    1.0012265    29.481789      37.3436    43.239958 
   34800    47742.422    120.52172    243.18068    1471.1384    4403.8162    388.95555    464.67443    278.92417    42.068671    1174.6228   -2853.5364   -81.368617    25431.415   -19348.685    6044.2751   0.99835077    29.510069    37.379421    43.281435 
   35000    47580.512    118.03366   -1089.7216    1440.7681    4415.1261    401.96331     451.0993    275.85403    50.227939    1179.1446   -2855.3682   -81.645505    25437.859   -19346.509    5099.7222     1.001748    29.476672    37.337118    43.232452 
   35200    47384.602    119.49518   -686.13958     1458.608    4429.6333     417.5518    450.01032    279.36797    44.707209    1191.6373   -2858.5786   -81.983065    25444.516   -19347.942    5414.0805    1.0058897     29.43616    37.285803    43.173035 
   35400    47586.294    117.18014    120.79696    1430.3497    4417.2323    389.92326    460.88129    277.46494    45.100445    1173.3699   -2871.4514   -81.635585    25463.885   -19348.571    5931.4148    1.0016263    29.477866     37.33863    43.234203 
   35600    47557.807     121.6449    578.13722    1484.8484    4416.5772    404.97137    464.69064    278.70869    45.662706    1194.0334   -2870.6561   -81.684483    25439.784   -19346.584    6302.4111    1.0022263    29.471983    37.331178    43.225575 
   35800    47480.117    118.87367   -189.27934    1451.0217    4403.1333    398.17906    457.26447    270.21738    48.544074     1174.205   -2885.2303    -81.81814    25459.437   -19345.278    5723.0887    1.0038662    29.455926    37.310839    43.202024 
   36000    47517.897    118.27792   -675.12457    1443.7496    4427.5264    426.85461    457.54769    283.71962    44.266635    1212.3886   -2865.5992    -81.75309     25428.06   -19347.323    5403.4148    1.0030681    29.463736    37.320732     43.21348 
   36200    47570.962    118.86469   -333.35705     1450.912    4435.0738    416.95286    454.28004    265.54017    48.887378    1185.6605   -2847.5046   -81.661895    25443.982   -19347.064    5654.7115    1.0019491      29.4747     37.33462     43.22956 
   36400    47791.224     120.9303   -640.29471    1476.1256    4407.2621    408.41328    459.90905    259.71672     44.37505    1172.4141   -2857.2934   -81.285529    25440.802    -19348.66    5437.1113   0.99733132    29.520121    37.392153    43.296177 
   36600    47609.187    121.30048    184.44755    1480.6443    4443.4142    415.34691    456.95995    275.97574     46.26705    1194.5497   -2857.7938   -81.596329    25455.141   -19348.482    6052.1262    1.0011447    29.482592    37.344617    43.241135 
   36800    47647.169    118.33577    730.76769    1444.4558    4420.4873    410.82103    472.15167    258.79871    41.779412    1183.5508   -2870.3783   -81.531284    25457.651   -19350.336    6372.7426    1.0003466    29.490431    37.354545    43.252632 
   37000    47716.859    121.90884    601.47552    1488.0702    4395.8504    398.65249    464.39322    269.64141    41.625474    1174.3126   -2866.0452   -81.412209    25436.166   -19348.583    6302.4883   0.99888561    29.504801    37.372748    43.273709 
   37200    47464.009    119.77113   -327.37758    1461.9763    4370.5803    396.70815    455.43213    264.93793     40.31112    1157.3893   -2866.9397   -81.845908     25431.01   -19350.879    5605.9414    1.0042069    29.452594    37.306619    43.197138 
   37400    47787.339    119.60668   -1262.7452     1459.969    4407.9706     422.4316    447.16347    267.08789    45.055303    1181.7383    -2847.981   -81.292137    25424.733   -19350.519    4987.8955   0.99741239    29.519321     37.39114    43.295004 
   37600    47638.468    119.94133   -150.52713    1464.0539    4415.7446     413.9314    462.52162    265.56315    43.132847     1185.149   -2845.4742   -81.546176    25424.941   -19348.871    5775.2186    1.0005293    29.488635    37.352271    43.249998 
   37800    47518.026    116.46793    711.26576    1421.6561     4404.471     398.4849    456.67232    272.10122    43.075859    1170.3343   -2854.7361   -81.752868     25438.13   -19349.257    6319.0355    1.0030653    29.463763    37.320766    43.213519 
   38000     47716.21    119.28664   -46.142266    1456.0625    4441.6196    406.32629    473.70203    269.89393    44.818349    1194.7406   -2851.4938   -81.413316    25443.428   -19345.056    5865.5721    0.9988992    29.504668    37.372579    43.273513 
   38200    47794.711    122.05964   -503.64969    1489.9109    4414.4458    409.17664    464.20322    264.72874     44.01147    1182.1201   -2850.7753   -81.279598     25434.53   -19351.429    5553.2943   0.99725855    29.520839    37.393062     43.29723 
   38400    47520.992    119.69106   -144.24624    1460.9991    4406.4437    414.39198    471.60984    263.17863    44.790282    1193.9707   -2866.8109   -81.747765    25428.679   -19349.395    5767.4737    1.0030027    29.464376    37.321543    43.214418 
   38600     47412.45    119.14882    -16.06549    1454.3802    4391.4763    407.87347    439.45231    270.30882    44.074576    1161.7092   -2872.8495   -81.934912    25451.144   -19348.528    5834.7478    1.0052989    29.441926    37.293106    43.181491 
   38800    47553.721    118.00831   -336.65818    1440.4587    4396.3226     410.5872    462.34709    264.02768    47.744317    1184.7063   -2860.3888   -81.691502    25421.211   -19349.206    5603.3013    1.0023124    29.471139    37.330109    43.224337 
   39000    47327.878     119.1448    345.17715    1454.3312    4414.5404    419.04372    445.23815    271.24638    44.954511    1180.4828   -2864.3461   -82.081323    25447.168   -19348.765    6107.1227    1.0070953     29.42441    37.270919    43.155801 
   39200    47548.035    118.12616     1097.135    1441.8972    4403.8369    403.39317    484.34081    270.36477    48.175627    1206.2744   -2869.9361    -81.70127    25416.067   -19348.569    6606.5306    1.0024322    29.469964    37.328621    43.222614 
   39400    47709.508    118.32912     790.1594    1444.3747    4409.9971     410.0853    455.51792    281.04599    43.970533    1190.6197   -2859.5346   -81.424753    25428.349   -19349.437    6404.1601   0.99903953    29.503286    37.370829    43.271486 
   39600    47579.523    121.92631    290.67563    1488.2835    4419.0435    423.92194    463.83243    266.53789     44.47182    1198.7641   -2867.8509   -81.647202    25437.479   -19349.348    6109.0264    1.0017689    29.476468    37.336859    43.232153 
   39800    47556.171    117.50768   -82.285453    1434.3478    4421.6974    422.29759    468.32785    273.41623    46.668837    1210.7105   -2859.1517   -81.687293    25418.118   -19347.979    5798.9754    1.0022608    29.471645     37.33075    43.225079 
   40000    47301.542    118.75086    191.83358    1449.5226    4400.6648    410.66838    467.99204    265.62052    46.972215    1191.2532   -2874.4998   -82.127025    25433.785   -19349.874    5982.5227     1.007656    29.418951    37.264004    43.147794 
   40200    47494.293    119.89042   -1.4238325    1463.4324    4407.3697    419.04663    488.02679    270.28947    44.188655    1221.5515   -2892.9168   -81.793719    25429.406   -19350.671    5869.8159    1.0035666    29.458857    37.314552    43.206323 
   40400    47440.362      120.975    338.09382    1476.6713    4398.1936    402.33899    455.39491    274.73321    45.639113    1178.1062   -2877.3438   -81.886705     25445.33   -19347.899    6108.7816    1.0047074    29.447702    37.300422    43.189963 
   40600    47625.604    120.19145    174.81085     1467.107    4459.9905    425.91365    456.07109    291.57497    48.781379    1222.3411   -2842.6448   -81.568203      25428.2   -19347.906    6048.5159    1.0007996    29.485981    37.348909    43.246105 
   40800    47507.238    119.47906    244.31131    1458.4113     4412.844    409.37899    450.46956    279.79644    44.281447    1183.9264   -2860.1434   -81.771432    25436.614   -19347.553     6040.525    1.0032931    29.461533    37.317942    43.210248 
   41000     47442.18    122.73398   -620.43596    1498.1422    4382.5844    410.51558    445.09017    269.73554    45.472113    1170.8134   -2875.8921   -81.883566    25436.413    -19348.75    5451.4497    1.0046689    29.448078    37.300899    43.190515 
   41200    47630.951    118.51013   -1483.4329     1446.584    4386.6545    411.10919     452.1541    269.47172    49.583821    1182.3188   -2869.1952   -81.559046    25419.366   -19345.836     4802.774    1.0006872    29.487084    37.350307    43.247723 
   41400     47384.78    118.60177   -521.87765    1447.7026    4447.1342     430.8459    477.44577    276.22148    44.802018    1229.3152   -2864.4565   -81.982756     25431.57   -19349.294    5534.1889    1.0058859    29.436197     37.28585    43.173089 
   41600     47364.24    119.81047    218.48987    1462.4566    4412.6505    422.04475    448.10415    279.92292    47.351205     1197.423   -2877.6519    -82.01831    25438.548   -19345.669    6026.0309    1.0063222    29.431943    37.280461     43.16685 
   41800    47437.071    118.63149      352.086    1448.0654    4356.3813    398.32797    443.71965    271.04912    44.110029    1157.2068   -2879.5542   -81.892384    25428.072   -19349.343    6048.0272    1.0047771    29.447021     37.29956    43.188964 
   42000    47341.355    117.74079    86.290253    1437.1932    4423.9924    410.92431    466.30412    287.56987    48.592414    1213.3907   -2872.3024   -82.057958    25428.884    -19345.98    5920.7626    1.0068086    29.427202    37.274456    43.159897 
   42200    47274.991    121.77596    -316.4975    1486.4482    4393.8673    430.51038    456.53218    270.22084    40.717808    1197.9812   -2881.9725   -82.173149    25427.611   -19349.752    5662.1039     1.008222    29.413445    37.257031     43.13972 
   42400    47425.074    123.17264   -276.30349    1503.4966     4393.395    418.29732    459.57871    271.40088    47.026668    1196.3036   -2883.6998   -81.913102    25428.587   -19347.796    5705.7873    1.0050313    29.444538    37.296415    43.185323 
   42600    47656.841    119.57224    67.894883    1459.5487    4420.8321    415.46228    455.44728    278.28422    45.876229      1195.07   -2839.3192   -81.514738    25418.402    -19353.32    5927.5695    1.0001436    29.492426    37.357073    43.255558 
   42800    47842.348    119.69002   -319.75434    1460.9863    4419.0435    418.24056    454.99528     278.1009    47.021146    1198.3579   -2847.5592   -81.198667    25419.921   -19351.676    5656.9271   0.99626557    29.530643    37.405482     43.31161 
   43000    47412.062    123.06688    118.96059    1502.2057     4416.649     419.1713    460.28047    283.47024    44.351745    1207.2738   -2861.7893   -81.935582    25422.209   -19351.044    6001.1108    1.0053071    29.441845    37.293004    43.181373 
   43200    47358.001     119.8764   -481.38252    1463.2614    4391.2437    425.50617    456.66674    278.91593    47.479426    1208.5683    -2902.988   -82.029115    25437.035   -19351.372    5522.0296    1.0064547    29.430651    37.278824    43.164954 
   43400    47502.382    120.28599   -279.26215     1468.261    4403.1162    425.53178    461.35794    287.06315    42.247493    1216.2004   -2879.2589   -81.779791    25415.753   -19349.578    5677.9118    1.0033957    29.460529     37.31667    43.208776 
   43600    47536.736    121.44994    58.113403    1482.4686    4449.5291      433.487    472.75557    275.24425     50.86111    1232.3479   -2869.3026    -81.72069    25438.398   -19351.915    5972.2862    1.0026705    29.467629    37.325664     43.21919 
   43800    47347.347      118.781    800.07535    1449.8904    4408.3137    396.04088    481.07198    279.35066    43.117319    1199.5808   -2866.2723   -82.047573    25424.849   -19349.844    6410.6662    1.0066812    29.428444    37.276029    43.161717 
   44000    47524.239     119.7093    316.08575    1461.2217    4395.9611    427.02516    454.95041    271.91366    48.787599    1202.6768   -2882.0437    -81.74218    25427.352   -19352.024    6076.2594    1.0029342    29.465047    37.322393    43.215402 
   44200     47443.39    123.25468   -404.71557     1504.498    4405.8597    412.57257    458.92067    280.35526     46.77793    1198.6264   -2889.1839   -81.881477    25444.794   -19348.376    5630.3297    1.0046433    29.448329    37.301216    43.190882 
   44400    47200.161     119.2793   -436.29462    1455.9729    4400.1893    427.02997    450.55524     270.1638    42.097181    1189.8462   -2881.3036   -82.303424    25441.297    -19349.65    5555.8318    1.0098204    29.397918    37.237363    43.116946 
   44600    47495.073    121.69201   -846.15148    1485.4234    4372.8755     406.9183    454.14352    276.51118    45.738902    1183.3119   -2877.2214   -81.792377    25416.998   -19350.214    5272.1977    1.0035501    29.459018    37.314756     43.20656 
   44800    47306.989    120.97089    42.104319    1476.6211    4417.2742    432.47921    473.69821    276.93002    47.752822    1230.8603   -2872.6732   -82.117568    25411.023   -19351.936    5922.9441      1.00754     29.42008    37.265434     43.14945 
   45000    47513.397    118.20331    109.91138    1442.8389    4436.5488    426.89357    479.13219    280.58282    43.604837    1230.2134   -2869.9541   -81.760832    25426.516   -19350.226    5955.5491     1.003163    29.462806    37.319554    43.212115 
   45200     47612.03    120.00305   -158.86263    1464.8072    4398.6855     417.0554     466.9367    259.37651    45.223494    1188.5921   -2861.2112   -81.591457    25423.289   -19351.985    5753.1828    1.0010849    29.483179     37.34536    43.241996 
   45400    47101.776    120.40665    289.01743    1469.7338    4397.5358    419.75976    461.62934    267.78659     45.27248    1194.4482    -2880.406   -82.475338    25434.101   -19350.607    6065.8046    1.0119297    29.377478    37.211472    43.086967 
   45600    47169.864    118.42932    300.67728    1445.5977    4384.3177    427.07595    470.07299    261.80701    44.710452    1203.6664   -2874.5557   -82.356287    25405.331   -19350.124    6036.7586     1.010469    29.391627    37.229394    43.107719 
   45800    47565.016    120.96647   -226.50492    1476.5672    4378.3979    402.84442    454.12903    275.62541    45.855707    1178.4546   -2875.0664   -81.672103    25424.688   -19349.678    5697.8416    1.0020744    29.473472    37.333064    43.227759 
   46000    47548.609    121.70565   -284.49507    1485.5899    4407.8883    426.90635     471.6493    264.26885    42.156732    1204.9812   -2871.3543   -81.700285    25422.579   -19348.318    5696.1957    1.0024202    29.470082    37.328771    43.222788 
   46200    47460.732    117.35658   -179.56958    1432.5034    4409.1826    418.98233    467.37459    269.10292    42.753061    1198.2129   -2865.4347   -81.851559    25426.106   -19349.702     5717.394    1.0042762    29.451916     37.30576    43.196144 
   46400    47428.143    122.72327    193.06122    1498.0114    4400.5694    416.61868    475.69377    270.66892    45.983921    1208.9653   -2871.9265   -81.907801    25414.476   -19350.946    6032.1194    1.0049663    29.445174     37.29722    43.186255 
   46600    47402.567    121.15075    199.16206    1478.8166    4419.0934     422.8909    460.72787    281.51836     43.46212    1208.5993    -2869.771   -81.951994    25430.174   -19349.909    6035.5942    1.0055085     29.43988    37.290514     43.17849 
   46800    47330.825    117.97171   -483.97406    1440.0119     4394.389    408.95021    480.59829     275.6269    47.340322    1212.5157   -2870.2306   -82.076213    25401.081   -19348.977    5500.3274    1.0070326     29.42502    37.271692    43.156696 
   47000    47412.212    121.69993   -387.16813    1485.5202    4404.4028     419.4994    455.77624    277.68988    47.083228    1200.0487   -2885.4089   -81.935322    25437.858   -19348.095    5622.2122    1.0053039    29.441876    37.293043    43.181419 
   47200    47365.839    119.70584   -9.4947044    1461.1794    4394.0671    418.64255    473.94519    282.38013    45.760472    1220.7283   -2883.2062   -82.015541    25407.624   -19351.079    5848.6878    1.0062882    29.432274    37.280881    43.167336 
   47400    47372.068    119.05304    753.05798    1453.2111    4401.7075     427.6472    463.13642    274.22444    43.142253    1208.1503   -2872.9434   -82.004756    25418.699   -19352.199     6375.186    1.0061559    29.433565    37.282515    43.169228 
   47600    47457.408     124.0254    382.16657    1513.9057     4403.683     412.4709    465.18279    280.86768    48.904087    1207.4255   -2877.9825   -81.857292    25426.272   -19352.032    6182.0929    1.0043466    29.451229    37.304889    43.195135 
   47800    47420.635    120.08132    172.22816    1465.7627    4395.8986    405.06938     459.5528    292.55352    42.553287     1199.729    -2878.978    -81.92077    25426.543   -19351.396    5980.7711    1.0051254     29.44362    37.295252    43.183976 
   48000    47289.084    118.15633    35.955031    1442.2654     4378.092    407.45098    451.79869    279.08021    51.308147     1189.638   -2884.6889    -82.14866    25422.299   -19349.156    5845.1543    1.0079215    29.416368    37.260733    43.144006 
   48200    47286.594    119.13948    150.15065    1454.2662    4373.2067    404.99538    449.09733    289.41139    44.360428    1187.8645   -2882.9331   -82.152986    25418.024   -19349.749    5931.0208    1.0079746    29.415851    37.260078    43.143249 
   48400    47497.409    119.00782    47.672588    1452.6591    4435.1553    431.55192    479.54266    278.83337    51.567313    1241.4953   -2871.7162   -81.788353    25414.778   -19349.402    5920.8372    1.0035007    29.459501    37.315368    43.207268 
   48600    47369.763    118.18334     59.39385    1442.5951    4384.4548    412.88229     449.1628    280.90843    43.135758    1186.0893   -2876.6408   -82.008746    25425.892   -19350.886    5868.0815    1.0062048    29.433087     37.28191    43.168528 
   48800    47257.487    119.84917   -505.68306     1462.929    4372.1497    403.38517    447.09562    286.52847    43.885065    1180.8943   -2870.0134   -82.203586    25408.245   -19346.976    5486.5609    1.0085954    29.409815    37.252432    43.134395 
   49000    47517.591    120.45906    -1066.267    1470.3735    4396.0617    435.17897    471.20928    269.95838    46.746898    1223.0935   -2881.3964   -81.753616    25405.651   -19351.286    5127.5171    1.0030745    29.463673    37.320652    43.213387 
   49200    47390.755     122.9027   -614.33345    1500.2016    4445.6198    431.57166    474.59503    284.26187     49.16228    1239.5908   -2870.4995    -81.97242    25428.257   -19351.728    5521.2276    1.0057591    29.437434    37.287417    43.174904 
   49400    47155.004    121.73285    559.42954    1485.9219    4404.6977    432.48685    466.90513    272.80717    45.988217    1218.1874   -2873.4665    -82.38224    25410.097    -19350.12    6275.3434    1.0107874     29.38854    37.225484    43.103192 
   49600    47352.882    119.20883    190.46821    1455.1127    4364.3489    414.88692    460.61402    279.04946    49.831889    1204.3823    -2892.119   -82.037982    25403.749   -19351.664    5950.9976    1.0065635     29.42959    37.277481    43.163399 
   49800    47242.735    120.20661    451.17987     1467.292    4357.3813    409.30616    460.90928    269.30081    43.086373    1182.6026   -2876.4954   -82.229255    25404.474     -19353.2    6135.5303    1.0089103    29.406754    37.248555    43.129906 
   50000    47449.411    122.03061   -405.66469    1489.5566    4395.0264    420.98189    469.48377    286.80564    48.441671     1225.713   -2897.5331   -81.871088    25416.382   -19349.535    5603.8626    1.0045158    29.449574    37.302794    43.192709 
   50200    47233.125    120.33213   -261.24195    1468.8241    4391.4971    419.12514    469.94053     280.8468    47.222421    1217.1349   -2866.7243   -82.245986    25390.745   -19349.658    5680.3656    1.0091156     29.40476    37.246029    43.126981 
   50400    47403.659    120.51297   -1008.3332    1471.0315    4377.2171     426.4693    469.10956    274.97615    46.320321    1216.8753   -2897.7458   -81.950107    25410.466   -19352.378    5151.1539    1.0054853    29.440106    37.290801    43.178822 
   50600     47069.22    120.23715    90.595627    1467.6648    4365.3939    424.90821    475.81151    263.18614    42.042107     1205.948   -2883.2275   -82.532383    25392.865   -19350.192    5895.2486    1.0126296    29.370708    37.202897    43.077038 
   50800     47431.74      120.297    311.00955    1468.3953    4404.9875    418.70445    483.73509    275.62857    46.740846     1224.809   -2886.0755    -81.90159    25415.576   -19349.322    6088.5216    1.0048901    29.445918    37.298163    43.187346 
   51000    47582.403    120.80118    487.26523    1474.5496    4400.6034    421.91464    473.02246    272.18442    43.115424    1210.2369   -2871.0094    -81.64226    25411.326    -19349.95    6213.2861    1.0017082    29.477062    37.337612    43.233025 
   51200    47085.894     119.4053    614.97434     1457.511    4371.2428    414.25911    470.32123    277.52202    47.581285    1209.6836   -2892.2003   -82.503158    25404.605   -19350.846    6251.0563     1.012271    29.374175    37.207289    43.082124 
   51400    47213.092    119.24617    242.45216    1455.5685    4356.9682    422.83426    454.15659    261.79108    42.017246    1180.7992   -2893.0123   -82.280882    25419.143   -19349.961    5979.4783    1.0095438    29.400602    37.240763    43.120883 
   51600    47356.513     121.1904   -173.28496    1479.3006    4397.9116    421.35401    481.08164    271.37228     46.85599    1220.6639   -2884.3325   -82.031692    25410.034   -19348.454    5757.5336    1.0064864    29.430343    37.278434    43.164502 
   51800    47334.979    119.74094   -257.79934    1461.6079    4398.6126    431.56053    453.30299    274.26138     43.40938    1202.5343   -2898.7043    -82.06901    25443.296   -19348.514    5682.2534    1.0069442    29.425881    37.272783    43.157959 
   52000    47087.064    120.00182    459.80218    1464.7923    4349.3792    410.64615     479.1933    269.70654     40.39743    1199.9434    -2890.058   -82.501106    25390.923    -19351.43    6129.9253    1.0122458    29.374419    37.207597    43.082481 
   52200    47350.077    119.57602   -219.76972    1459.5947    4385.7177    419.32474    466.26564    267.82716     44.95782    1198.3754   -2896.2299   -82.042842    25432.125   -19348.553      5693.55    1.0066232    29.429009    37.276745    43.162547 
   52400     47500.01    121.13306   -350.51132    1478.6007     4402.673    432.32308    476.09292    256.52067    40.941053    1205.8777   -2848.2201   -81.783875    25396.011   -19350.995    5638.4608    1.0034458    29.460039    37.316049    43.208057 
   52600    47495.785    119.38743   -886.75547    1457.2928     4374.475    430.22532    471.38472     270.2498    41.541875    1213.4017   -2878.6428   -81.791151    25391.876   -19352.159    5217.5325     1.003535    29.459165    37.314942    43.206775 
   52800     47272.16    121.01025    -394.9539    1477.1016    4359.7273     426.8257    462.92952    268.77246    41.681552    1200.2092   -2891.7412   -82.178071    25400.935   -19349.676    5564.5414    1.0082823    29.412858    37.256287    43.138858 
   53000    47335.062    121.77371    455.51534    1486.4207    4415.3818    432.05739    489.54449    280.66552    42.539442    1244.8068   -2872.5167   -82.068866    25395.063   -19351.971    6216.2599    1.0069425    29.425898    37.272805    43.157984 
   53200    47498.654    119.62261    1017.3165    1460.1635    4401.6733    416.76637    470.86381    262.77864    43.848802    1194.2576   -2876.6361   -81.786211    25435.696   -19351.644    6566.5514    1.0034744    29.459758    37.315694    43.207645 
   53400    47451.138    119.47114    192.92969    1458.3146    4411.6461     419.8792     481.5336    272.59096    43.674503    1217.6783    -2889.987   -81.868107    25435.211   -19351.256    6003.4731    1.0044793    29.449932    37.303247    43.193233 
   53600    47095.822    121.16389   -575.58423     1478.977    4387.5493    426.31889    470.39894    277.61343    45.001621    1219.3329    -2883.023   -82.485765    25402.809   -19351.569    5471.1895    1.0120576     29.37624    37.209904    43.085152 
   53800     47278.29    119.64743   -859.84575    1460.4664    4359.5695    431.84589    466.43501    256.66942    43.788337    1198.7387   -2894.5577   -82.167415    25407.302   -19351.913    5227.1676    1.0081516    29.414129    37.257897    43.140723 
   54000    47349.384      118.127    16.812251    1441.9074     4428.971    415.06162    507.13458    281.94089    49.371491    1253.5086    -2872.225   -82.044043    25399.687       -19352     5882.488    1.0066379    29.428866    37.276563    43.162336 
   54200    47237.925    119.95746    499.87233    1464.2508    4405.7738    434.68722    486.77068    270.43398     41.85848    1233.7504    -2893.633   -82.237628    25417.689   -19352.032     6214.395    1.0090131    29.405756    37.247291    43.128442 
   54400    47195.061    121.55051    202.10751    1483.6962    4334.1497    413.54599    457.42622    258.52262    41.337256    1170.8321   -2898.2869   -82.312319    25413.489   -19351.884    5956.9548    1.0099295    29.396859    37.236021    43.115393 
   54600    47157.804     121.0202    -254.7751    1477.2231    4393.4876     433.4644    469.33537     272.6455    48.947196    1224.3925   -2876.7717   -82.377349    25398.815   -19352.948    5695.4895    1.0107274    29.389121    37.226221    43.104045 
   54800    47316.327    121.44307   -819.99748    1482.3848     4340.051    425.45725    442.06979     265.3855    41.870599    1174.7831   -2905.9923   -82.101362    25422.989   -19351.729    5256.5882    1.0073412    29.422016    37.267886    43.152289 
   55000    47023.082    118.75084    128.57321    1449.5223    4371.5424    435.76122    456.98278     281.1874    47.783881    1221.7153   -2895.0569   -82.613361    25394.554    -19349.67     5909.238    1.0136231    29.361108    37.190737    43.062959 
   55200    46980.097    121.79324    791.75553    1486.6591    4365.4007    420.14783    480.03112    264.31405     43.12201     1207.615   -2913.9576   -82.688949    25422.204   -19350.461    6394.5363    1.0145506    29.352159    37.179401    43.049833 
   55400    47224.546     116.0151    577.65395    1416.1288    4375.7528    411.36562    474.49623    274.07716    45.574866    1205.5139   -2901.5756   -82.260926    25421.523   -19349.708    6189.7243    1.0092989     29.40298    37.243774     43.12437 
   55600    47005.213    122.05744    712.02756    1489.8841    4346.8328    406.05967    458.11317    271.40593    45.368423    1180.9472   -2894.0288   -82.644766    25408.794   -19348.879     6324.828    1.0140085    29.357389    37.186026    43.057503 
   55800    47322.538    118.74275   -563.15585    1449.4236    4394.4823    434.60044    453.78382    285.56902    44.777458    1218.7307   -2883.9713   -82.090586    25411.016   -19351.293    5455.2434     1.007209    29.423303    37.269517    43.154178 
   56000    47207.622    117.98675   -556.96412    1440.1954    4365.9196    427.78049    472.56066    277.38573    46.806545    1224.5334    -2913.995   -82.290417    25407.409   -19352.027    5422.6594    1.0096608    29.399467    37.239325    43.119218 
   56200    46789.091    118.01707    172.00018    1440.5656    4358.7934    417.28979    477.27174    281.64434    46.153354    1222.3592   -2900.6538   -83.026509    25385.688     -19348.6    5916.7269    1.0186922    29.312326    37.128946    42.991411 
   56400    47321.952    119.53482   -199.17506    1459.0919     4394.261    426.82133    473.25499     279.8154    48.033699    1227.9254   -2902.7252   -82.091602    25420.503   -19351.442    5715.8938    1.0072214    29.423181    37.269363    43.153999 
   56600    47234.136    118.37946    460.52194    1444.9891    4390.5169    422.07716    470.29862    272.86306     44.11976    1209.3586   -2885.7646   -82.244224    25417.499   -19350.576    6152.7418     1.009094     29.40497    37.246295    43.127289 
   56800    47008.351    117.15798    601.75988    1430.0791    4370.3261    407.76663    460.89349    279.16184    45.148621    1192.9706   -2881.4029   -82.639251     25411.09   -19352.332    6212.9529    1.0139408    29.358042    37.186853    43.058461 
   57000     47319.64    120.20411   -311.14306    1467.2615    4392.1726    431.69028    484.17022    259.35895    46.164381    1221.3838   -2890.2686   -82.095614    25411.443   -19350.386    5644.7116    1.0072706    29.422702    37.268756    43.153297 
   57200    47349.965    121.10283   -650.14644    1478.2317    4365.8637    410.48172    470.24434    277.24784      49.5002    1207.4741    -2894.637   -82.043036    25407.641   -19354.615    5395.1363    1.0066255    29.428986    37.276716    43.162513 
   57400    47085.793     118.5501   -58.268421    1447.0719    4356.6524    417.28486     471.5838    277.40448    41.690538    1207.9637   -2902.2574   -82.503333    25401.421   -19350.475    5763.7116    1.0122731    29.374155    37.207263    43.082093 
[...]
 1986600    45845.811    121.53757    228.95878    1483.5383      4261.22    453.53133    478.03277    288.90435    42.242031    1262.7105   -2983.1281   -84.734784    25336.634   -19354.996    5897.8433    1.0396519    29.114006    36.877741    42.700542 
 1986800    46449.107    117.96533    -481.0628    1439.9341    4261.1341    433.49356    473.34938    283.59742    43.341447    1233.7818   -2993.5861   -83.634222     25372.53   -19351.592    5375.1902    1.0261486    29.241156    37.038797    42.887028 
 1987000    46187.016    118.45027    258.23654    1445.8535    4290.3323    455.44878    486.37595    284.84211    42.727772    1269.3946   -2973.6211   -84.108808    25349.881   -19355.322    5910.1314    1.0319715    29.186054    36.969002    42.806212 
 1987200    46233.106    118.65299    97.580437    1448.3279     4262.567     430.7226    492.08886    265.74635     42.05996    1230.6178   -2989.7309   -84.024959    25375.876   -19354.196    5776.6897    1.0309427    29.195759    36.981295    42.820447 
 1987400    46333.251    122.20573   -202.71318    1491.6941    4266.4501    469.53696     467.9941    279.88547    42.044749    1259.4613   -2992.9579   -83.843348    25354.373   -19354.426    5621.1663    1.0287144    29.216824    37.007977    42.851342 
 1987600    46232.159      120.309   -577.71522    1468.5418     4277.209     461.1868    477.57328    284.54583    47.379458    1270.6854   -2997.1042   -84.026681    25356.734   -19353.107    5356.2271    1.0309638     29.19556    36.981042    42.820154 
 1987800    46294.129    117.44697   -407.15175    1433.6067    4291.0769    471.31311    482.47808    286.65774    41.773251    1282.2222   -2988.0435   -83.914202    25351.096   -19354.197    5449.7941    1.0295838    29.208598    36.997558    42.839278 
 1988000    46272.524    120.41583    608.21581    1469.8458    4285.2336    458.34241    462.66256     277.5283    48.487458    1247.0207   -2967.8833   -83.953383    25360.382   -19354.286    6165.5261    1.0300645    29.204054    36.991802    42.832612 
 1988200    46288.347    119.16972    363.22796    1454.6353    4257.7134    442.53063    463.60801     293.0861    46.939727    1246.1645   -2987.7093   -83.924684    25354.769   -19355.511    5957.5523    1.0297124    29.207382    36.996018    42.837494 
 1988400     46223.09    119.03375    359.37898    1452.9757    4271.5173    461.91548    456.23984    275.29257    45.692382    1239.1403   -2983.2617   -84.043167    25370.175   -19354.536    5966.7562    1.0311661    29.193651    36.978624    42.817354 
 1988600     46235.84     121.2527    186.74596     1480.061    4279.1228    454.52191    488.59285     273.0659    46.566977    1262.7476   -2979.4672   -84.019991    25349.022   -19353.179    5885.1071    1.0308818    29.196335    36.982024    42.821291 
 1988800    46388.048    118.74795   -15.645207    1449.4871    4255.7781     462.6472    433.56532    282.27578    43.410499    1221.8988   -2970.8388   -83.744306    25360.954   -19356.236    5694.6809    1.0274992    29.228337    37.022561    42.868228 
 1989000    46233.207    119.45931    120.35613    1458.1702    4262.2703    449.98684     470.5915    276.03943    50.716687    1247.3345   -2978.0024   -84.024776    25346.849   -19353.911    5801.5923    1.0309405     29.19578    36.981322    42.820478 
 1989200    46448.483     120.2695    61.863575    1468.0596    4297.4929    459.71786     469.6023    280.61428    44.130126    1254.0646   -2964.2656   -83.635345    25361.873   -19354.179    5807.4592    1.0261623    29.241025    37.038631    42.886836 
 1989400    46698.314    123.23854    -354.4306     1504.301    4276.6235     457.1318     466.0818    269.91812    44.180314     1237.312   -2959.6506   -83.187904    25355.671   -19356.709    5539.5406    1.0206725    29.293357    37.104919    42.963591 
 1989600     46299.05    116.44946    106.12127    1421.4306    4302.6417    454.29529    480.02558    290.17038    45.101755     1269.593   -2961.7753   -83.905283    25348.785   -19353.961     5795.728    1.0294743    29.209633    36.998869    42.840795 
 1989800    46262.778    120.75153      311.874    1473.9435     4247.158     450.6147    451.53289    277.14146    49.440657    1228.7297   -2986.4864   -83.971068    25358.497   -19353.582    5931.5214    1.0302815    29.202003    36.989204    42.829605 
 1990000    46400.682    120.41166    540.64991     1469.795    4308.2843    453.25598    478.53694    294.41985    49.550742    1275.7635   -2981.0797   -83.721504    25367.626   -19354.026    6143.9405    1.0272195    29.230991    37.025921     42.87212 
 1990200    46340.702    119.16559    66.460193    1454.5849    4300.2393    461.19517    467.89394    289.60314    48.839723     1267.532   -2974.9324   -83.829867    25359.032   -19351.392    5799.7402     1.028549     29.21839    37.009961    42.853639 
 1990400    46195.269    118.57305    -686.6457    1447.3522     4262.985    465.26071    471.35128    277.12696    45.289202    1259.0281   -2983.0045   -84.093782    25341.437   -19354.475    5247.7367    1.0317871    29.187792    36.971203    42.808762 
 1990600    46318.281    121.48128   -454.33935    1482.8511    4282.3034    447.29909    474.27903    291.36445    47.243541    1260.1861   -2972.9308   -83.870446    25349.259   -19354.211    5458.2462    1.0290469    29.213677    37.003991    42.846726 
 1990800    46433.355    122.85758   -571.79545    1499.6509    4263.6438    449.39376    458.94448     283.8167    45.106572    1237.2615   -2970.1408   -83.662593    25348.099   -19351.576    5376.0846    1.0264967     29.23785     37.03461     42.88218 
 1991000    46334.435    121.05183   -884.16268    1477.6092    4255.7931    446.81717    463.70734    287.56394    45.710089    1243.7985   -2984.9823   -83.841206    25351.298   -19354.321    5135.9381    1.0286882    29.217073    37.008292    42.851707 
 1991200    46172.238    118.35817   -354.90493    1444.7292    4270.9245    446.32227    474.51176    287.54061    45.559153    1253.9338   -2981.4985   -84.135729    25353.205   -19354.716    5476.6697    1.0323018    29.182941    36.965058    42.801646 
 1991400    46365.462    120.09626     87.64283     1465.945    4299.7536    457.22828     483.0728    286.08419    46.509928    1272.8952   -2976.9668     -83.7851    25357.508   -19353.683     5824.962    1.0279998    29.223593    37.016551     42.86127 
 1991600    46479.141    120.88667    171.24052    1475.5931     4258.525    447.16674       473.48     284.7518    42.401718    1247.8003    -2986.831   -83.580179    25352.356     -19354.8    5850.1936    1.0254855    29.247457    37.046779     42.89627 
 1991800     46320.14    118.82513    816.03119    1450.4291    4293.9454    452.46375    487.25604    288.95065     46.86597    1275.5364   -2986.2685    -83.86708    25358.723   -19354.046    6295.6295    1.0290056    29.214068    37.004486      42.8473 
 1992000    46289.451    119.97752    230.19923    1464.4956    4272.9404    465.47192    461.29631    297.16277    43.458156    1267.3892   -2988.6337   -83.922683    25349.229   -19355.044    5892.8399    1.0296878    29.207614    36.996312    42.837835 
 1992200    46301.218    119.01466    138.93876    1452.7426    4255.1374    454.05532    466.08289    282.05565    48.579908    1250.7738   -2989.3187   -83.901353    25347.449   -19353.767    5801.6992    1.0294261    29.210089    36.999447    42.841464 
 1992400    46295.777    118.69253    194.51441    1448.8106    4271.1308    451.71284    466.33287    290.50783    42.063672    1250.6172   -2975.0341   -83.911214    25349.812   -19354.264    5851.2729    1.0295471    29.208945    36.997997    42.839786 
 1992600    46277.266    120.90374    427.86561    1475.8014    4283.5945     463.0717    459.45556    280.70088    49.451917    1252.6801   -2980.7157   -83.944779    25365.115   -19353.485    6048.1652    1.0299589    29.205052    36.993065    42.834076 
 1992800    46361.985    117.85515    865.52019    1438.5892    4253.0628    436.03567    461.95832    264.99293    42.508189    1205.4951    -2972.831   -83.791384    25372.077   -19351.678    6276.8665    1.0280769    29.222862    37.015626    42.860198 
 1993000    46360.525    118.25709    511.34631    1443.4954    4272.4168    439.43271    477.65174    275.34482    41.305328    1233.7346   -2958.7011   -83.794023    25349.075   -19351.691     6061.644    1.0281092    29.222556    37.015237    42.859748 
 1993200    46317.566     122.0515    -310.6543    1489.8115    4247.6507    444.64112    459.93747     280.1071    44.098736    1228.7844   -2981.5973   -83.871741    25353.231   -19352.767     5527.617    1.0290628    29.213527      37.0038    42.846506 
 1993400    46311.025    121.05203   -1183.8277    1477.6116    4261.7989    470.31422    444.53905    265.19449    49.104954    1229.1527   -2967.9164   -83.883586    25351.946   -19351.384    4939.8547    1.0292081    29.212152    37.002059    42.844489 
 1993600    46349.785    116.70545   -677.27148    1424.5555    4267.8312    456.67867    474.57525    281.72357    43.992378    1256.9699   -2982.3758   -83.813439    25348.021   -19354.784    5234.5754    1.0283475    29.220299    37.012379    42.856438 
 1993800    46091.789    122.58175    377.75316     1496.284    4264.7675    451.99629    460.61079    273.24978    43.284151     1229.141   -2973.9627   -84.282581     25365.08   -19355.491    6014.9777    1.0341036    29.165982    36.943577    42.776773 
 1994000    46515.756    119.32003   -460.69522      1456.47    4287.8006    458.79904     477.1763    273.07479    42.997117    1252.0472    -2965.628   -83.514388    25355.152   -19353.771    5431.7421    1.0246783    29.255135    37.056504    42.907531 
 1994200    46379.784    116.94971   -475.72008     1427.537     4254.716    441.79169    465.46299    285.65272    46.291249    1239.1986   -2965.5961   -83.759228    25336.372   -19355.259    5360.4751    1.0276823    29.226602    37.020362    42.865682 
 1994400    46113.762    119.86933   -285.19018     1463.175    4263.1619    446.13278    467.10952     283.8418    50.730132    1247.8142   -2980.0705    -84.24242    25349.183   -19353.764    5534.5402    1.0336108    29.170616    36.949447     42.78357 
 1994600    46243.608    119.00579    242.36505    1452.6343    4273.6567    449.73486    472.38014    274.76053     42.88277    1239.7583   -2973.6425   -84.005879    25361.314   -19353.773    5889.7458    1.0307086    29.197969    36.984094    42.823688 
 1994800    46469.281    120.89213   -136.04985    1475.6598       4244.6    452.05743    449.12009    270.27719    43.915367    1215.3701    -2970.001   -83.597913     25354.04   -19354.809    5628.0579    1.0257031    29.245389    37.044159    42.893236 
 1995000    46269.541    121.33046   -68.894658    1481.0102    4279.1324    460.62333    466.46964    289.48777    43.236767    1259.8175   -2970.2818   -83.958795    25343.494   -19353.897     5713.653    1.0301309    29.203426    36.991007    42.831692 
 1995200    46337.608     119.8523    862.38962    1462.9671    4258.0708    448.67591    474.18879    273.67683    47.365443     1243.907   -2973.5628   -83.835464    25341.571   -19353.845    6303.8292    1.0286177     29.21774    37.009137    42.852685 
 1995400    46303.046    119.00501    455.42805    1452.6248    4280.4197    467.12263    469.61803    288.73995    44.199557    1269.6802   -2995.0572   -83.898042    25360.872   -19355.075    6040.5871    1.0293855    29.210474    36.999933    42.842028 
 1995600    46052.512    122.30539     465.3722    1492.9106    4245.6511    450.92576    465.33005    272.00663     41.83642    1230.0989   -2988.7609   -84.354463    25356.869   -19352.556     6051.119    1.0349855    29.157695     36.93308    42.764619 
 1995800    46400.559     117.2692    -373.9161    1431.4367    4265.7953    457.61856    468.00166    278.40013    44.597344    1248.6177   -2995.7228   -83.721726    25365.608   -19352.708    5444.2013    1.0272222    29.230965    37.025889    42.872082 
 1996000    46451.115    119.48154   -411.12667    1458.4415    4297.7965    455.62469    475.50118    289.71232    44.892053    1265.7302   -2966.8925   -83.630605    25352.379    -19353.42    5477.7236    1.0261042    29.241577    37.039331    42.887647 
 1996200    46342.026    119.36215   -580.19791    1456.9842    4288.1809    461.53797    476.34709    282.71983    49.041855    1269.6467   -2990.0028   -83.827472    25361.334   -19352.797    5353.0378    1.0285196    29.218668    37.010313    42.854047 
 1996400    46282.791    119.09122    151.43773    1453.6771    4246.5245    435.10621    482.52103    278.45006    47.461338    1243.5386   -2990.8156   -83.934759    25346.586   -19352.785    5802.4202     1.029836    29.206214    36.994537     42.83578 
 1996600    46274.157    119.52417    486.94092    1458.9619    4269.8622    443.66096    462.93203    274.46852    45.092881    1226.1544   -2976.9248    -83.95042    25373.853   -19353.221    6057.4416    1.0300282    29.204397    36.992237    42.833116 
 1996800    46384.627    121.77777   -661.28102    1486.4703    4287.0465    469.56462    478.52447    270.25517    46.746063    1265.0903    -2975.728   -83.750482    25350.679   -19352.995    5326.1785     1.027575    29.227619    37.021651    42.867174 
 1997000    46380.935     121.6971   -1281.4848    1485.4856    4257.6517    444.19689    465.83627     274.4747    45.528459    1230.0363   -2967.2464   -83.757149     25348.73   -19353.868    4876.3174    1.0276568    29.226843    37.020668    42.866037 
 1997200     46314.23    118.76165   -451.11251    1449.6542    4256.7256    460.47162    474.95621    264.33074    45.172739    1244.9313   -2981.3603   -83.877782    25349.014    -19355.86    5401.6779    1.0291369    29.212825    37.002912    42.845477 
 1997400    46117.576    122.11148    1102.2627    1490.5436     4278.721      455.821    495.98203    280.32782    44.075736    1276.2066   -2994.6289   -84.235452     25351.88   -19354.737    6510.6218    1.0335253     29.17142    36.950465    42.784749 
 1997600     46339.89    118.70145    917.05666    1448.9194    4286.1285    460.08091    462.19184     285.8992    45.358365    1253.5303   -2975.1874   -83.831336     25360.81   -19353.024    6354.8129    1.0285671    29.218219    37.009744    42.853388 
 1997800    46290.323    118.71296   -278.84723    1449.0599    4292.2341    472.54413    475.68441    274.42672    45.082476    1267.7377    -2974.535   -83.921102    25352.316   -19353.285    5553.0451    1.0296684    29.207798    36.996544    42.838104 
 1998000    46173.662    119.71391   -260.27142    1461.2779    4266.6834    452.87385    478.24954    279.13669    43.984497    1254.2446   -2983.1414   -84.133133    25350.174   -19354.593    5552.6957      1.03227    29.183241    36.965438    42.802087 
 1998200    46353.546    118.08619    144.74744    1441.4093    4256.4617    453.53959    462.31537    275.50761    40.524932    1231.8875   -2982.8544   -83.806638     25363.05   -19355.622    5795.7229     1.028264    29.221089     37.01338    42.857598 
 1998400    46195.391    120.80454    111.05217    1474.5905    4286.3631    454.31542    496.05566     291.0994    45.507341    1286.9778   -2975.1805   -84.093561    25329.198   -19354.632    5835.7709    1.0317844    29.187818    36.971236    42.808799 
 1998600    46291.421    118.05938    -807.1057    1441.0821    4277.2233    452.60982    484.81392    279.38132    45.009393    1261.8145   -2992.0403   -83.919112     25361.81   -19354.361     5173.418     1.029644    29.208029    36.996837    42.838442 
 1998800    46118.971    118.03019   -63.039493    1440.7257    4277.8468    450.29163    479.73249    289.64237    44.952267    1264.6187   -2974.4942   -84.232904    25341.564   -19353.842    5676.1723    1.0334941    29.171714    36.950838    42.785181 
 1999000    46475.501     121.8402    414.82264    1487.2323    4295.4317    469.47657     462.2859    282.70963    44.828485    1259.3006   -2988.1931   -83.586725    25378.059   -19353.735    6063.8297    1.0255658    29.246693    37.045812     42.89515 
 1999200    46441.352    119.29057    459.57646    1456.1105     4272.687    449.76406    483.21738    276.96838     42.54313     1252.493   -2979.5156   -83.648187    25354.059    -19354.35    6040.0683    1.0263199    29.239528    37.036736    42.884642 
 1999400    45907.422    119.02541    609.76437    1452.8738    4271.3855    464.22259    458.72781    282.98576    41.283892    1247.2201   -2983.7224   -84.621063    25360.407   -19352.519    6132.5042    1.0382566    29.127042    36.894253    42.719662 
 1999600    46335.934    116.71311   -403.24052     1424.649    4248.5199    441.54161     476.7846    280.95375    46.043587    1245.3235    -2978.391   -83.838493    25336.808   -19355.221    5400.6742    1.0286549    29.217388    37.008691    42.852169 
 1999800    46379.705    121.59301   -236.08533     1484.215     4250.741     462.4985    469.54714    278.06807    42.456949    1252.5707   -2981.8793    -83.75937    25337.746   -19357.696    5575.2678    1.0276841    29.226585    37.020341    42.865658 
 2000000    46189.542    120.02316    327.88321    1465.0528    4243.9843    441.54123    464.91583      270.661    43.492734    1220.6108   -2960.9459   -84.104209    25340.531   -19356.212    5929.9081    1.0319151    29.186586    36.969675    42.806993 
 2000100    46274.395    117.67811     718.1264    1436.4281    4238.4087    441.24504    454.55649    284.61581    43.961587    1224.3789   -2978.7517   -83.949988    25346.868   -19354.086    6159.4749    1.0300228    29.204448      36.9923     42.83319 
Loop time of 8305.47 on 24 procs for 2000000 steps with 4096 atoms

Performance: 20.806 ns/day, 1.154 hours/ns, 240.805 timesteps/s
99.9% CPU use with 24 MPI tasks x no OpenMP threads

MPI task timing breakdown:
Section |  min time  |  avg time  |  max time  |%varavg| %total
---------------------------------------------------------------
Pair    | 3613.8     | 3981.5     | 4354.9     | 382.9 | 47.94
Bond    | 106.67     | 111.53     | 115.72     |  25.5 |  1.34
Kspace  | 1933.1     | 2311.8     | 2682.8     | 505.8 | 27.83
Neigh   | 118.85     | 119.02     | 119.25     |   1.0 |  1.43
Comm    | 655.03     | 708.38     | 743.45     | 134.8 |  8.53
Output  | 0.99054    | 1.0132     | 1.4574     |   9.2 |  0.01
Modify  | 482.43     | 739.41     | 1087.9     | 883.0 |  8.90
Other   |            | 332.8      |            |       |  4.01

Nlocal:        170.667 ave         183 max         155 min
Histogram: 1 1 3 1 2 5 3 5 1 2
Nghost:        5737.79 ave        5773 max        5698 min
Histogram: 2 4 1 1 2 2 2 6 1 3
Neighs:        86873.2 ave       97628 max       76374 min
Histogram: 1 3 2 3 3 4 4 0 2 2

Total # of neighbors = 2084957
Ave neighs/atom = 509.02271
Ave special neighs/atom = 6.0000000
Neighbor list builds = 32984
Dangerous builds = 0

write_data      data.${NAME}
write_data      data.ar.120
System init for write_data ...
PPPM initialization ...
  using 12-bit tables for long-range coulomb (../kspace.cpp:340)
  G vector (1/distance) = 0.2626136
  grid = 32 32 32
  stencil order = 5
  estimated absolute RMS force accuracy = 0.00037525755
  estimated relative force accuracy = 1.130077e-06
  using double precision KISS FFT
  3d grid and FFT values/proc = 6210 2048

write_restart   restart.${NAME}
write_restart   restart.ar.120
System init for write_restart ...
PPPM initialization ...
  using 12-bit tables for long-range coulomb (../kspace.cpp:340)
  G vector (1/distance) = 0.2626136
  grid = 32 32 32
  stencil order = 5
  estimated absolute RMS force accuracy = 0.00037525755
  estimated relative force accuracy = 1.130077e-06
  using double precision KISS FFT
  3d grid and FFT values/proc = 6210 2048

Total wall time: 2:18:28
