LAMMPS data file
# Generated by Playmol on 12-Nov-2022 at 13:05:36

6 atom types
6 bond types
8 angle types
6 dihedral types
3 improper types

4096 atoms
3584 bonds
4608 angles
4096 dihedrals
1536 impropers

-15.0000000 15.0000000 xlo xhi
-19.0000000 19.0000000 ylo yhi
-22.0000000 22.0000000 zlo zhi

Masses

1 12.01 # c2
2 12.01 # ce
3 12.01 # c
4 16.00 # o
5 1.008 # h4
6 1.008 # ha

# Elements: C? C? C? O? H? H?

Pair Coeffs # lj/cut/coul/long

1 0.0860 3.39967 # c2
2 0.0860 3.39967 # ce
3 0.0860 3.39967 # c
4 0.2100 2.95992 # o
5 0.0150 2.51055 # h4
6 0.0150 2.59964 # ha

Bond Coeffs # harmonic

1 343.1 1.088 # c2 ha
2 547.3 1.346 # c2 ce
3 342.5 1.088 # ce ha
4 354.5 1.482 # c ce
5 310.7 1.112 # c h4
6 637.7 1.218 # c o

Angle Coeffs # harmonic

1 49.60 119.94 # c2 ce ha
2 65.50 120.42 # c ce c2
3 38.10 116.90 # ha c2 ha
4 49.50 120.45 # ce c2 ha
5 46.70 114.89 # ce c h4
6 68.80 123.20 # ce c o
7 46.50 116.46 # c ce ha
8 54.20 120.70 # h4 c o

Dihedral Coeffs # charmm

1 2.17499995 2 180 0 # h4 c ce c2
2 2.17499995 2 180 0 # o c ce c2
3 6.65000010 2 180 0 # ha c2 ce ha
4 6.65000010 2 180 0 # ha c2 ce c
5 2.17499995 2 180 0 # h4 c ce ha
6 2.17499995 2 180 0 # o c ce ha

Improper Coeffs # cvff

1 10.5 -1 2 # c ce h4 o
2 1.1 -1 2 # ce c c2 ha
3 1.1 -1 2 # c2 ha ha ce

Atoms

1 1 1 -0.383530 -7.14204884 8.10257244 -5.88734913 # C1
2 1 2 -0.169515 -6.42280722 7.57903194 -4.94663715 # C2
3 1 3 0.512161 -6.83348703 7.63477087 -3.57770205 # C3
4 1 4 -0.488411 -6.22737598 7.17298985 -2.66076398 # O4
5 1 5 -0.008385 -7.68628216 8.09420586 -3.46700811 # H5
6 1 6 0.190890 -7.97314215 8.53674030 -5.68508005 # H11
7 1 6 0.190890 -6.86768818 8.09257984 -6.81691408 # H12
8 1 6 0.155900 -5.60806990 7.11175489 -5.13279295 # H2
9 2 1 -0.383530 -9.90608120 8.07297897 -16.7722740 # C1
10 2 2 -0.169515 -10.0448246 6.96466589 -16.1174946 # C2
11 2 3 0.512161 -10.6036472 5.80131483 -16.7340012 # C3
12 2 4 -0.488411 -10.7580471 4.74807978 -16.1971169 # O4
13 2 5 -0.008385 -10.8453493 5.95774412 -17.6655064 # H5
14 2 6 0.190890 -10.1719074 8.13575935 -17.6917992 # H11
15 2 6 0.190890 -9.54957962 8.87617970 -16.3633251 # H12
16 2 6 0.155900 -9.75367928 6.87293005 -15.2099609 # H2
17 3 1 -0.383530 -13.2866573 -3.90423894 10.7025261 # C1
18 3 2 -0.169515 -13.2934685 -2.64517498 11.0042801 # C2
19 3 3 0.512161 -13.3046455 -2.20646906 12.3655882 # C3
20 3 4 -0.488411 -13.3072586 -1.06781697 12.7189312 # O4
21 3 5 -0.008385 -13.3020325 -2.95241690 12.9934006 # H5
22 3 6 0.190890 -13.2835293 -4.57316399 11.3900280 # H11
23 3 6 0.190890 -13.3010139 -4.21821308 9.78564072 # H12
24 3 6 0.155900 -13.2618856 -1.96341705 10.3327084 # H2
25 4 1 -0.383530 -1.57259500 -13.8105011 2.82022691 # C1
26 4 2 -0.169515 -1.99900901 -13.5465860 1.62654996 # C2
27 4 3 0.512161 -2.12543511 -12.1995459 1.16260505 # C3
28 4 4 -0.488411 -2.50578308 -11.8806419 7.86200017E-02 # O4
29 4 5 -0.008385 -1.85459697 -11.5501642 1.83754599 # H5
30 4 6 0.190890 -1.32596898 -13.1038246 3.42015600 # H11
31 4 6 0.190890 -1.50174701 -14.7164221 3.15749788 # H12
32 4 6 0.155900 -2.21696496 -14.2390022 1.00216699 # H2
33 5 1 -0.383530 -0.218643993 -13.7454967 -16.5239143 # C1
34 5 2 -0.169515 -1.11084497 -12.8093882 -16.5873165 # C2
35 5 3 0.512161 -2.35547400 -12.9195395 -15.8912477 # C3
36 5 4 -0.488411 -3.22044396 -12.0990820 -15.8993235 # O4
37 5 5 -0.008385 -2.42469096 -13.7524452 -15.3891830 # H5
38 5 6 0.190890 -0.372581989 -14.5349188 -16.0011864 # H11
39 5 6 0.190890 0.620357990 -13.6962957 -17.0067406 # H12
40 5 6 0.155900 -0.961094975 -11.9994812 -17.0756054 # H2
41 6 1 -0.383530 13.2603893 -12.5894060 0.343452007 # C1
42 6 2 -0.169515 13.1296186 -11.9226522 -0.758674026 # C2
43 6 3 0.512161 13.0354671 -10.4954576 -0.758050978 # C3
44 6 4 -0.488411 12.9181843 -9.81570816 -1.73045695 # O4
45 6 5 -0.008385 13.0859594 -10.1230068 0.141572997 # H5
46 6 6 0.190890 13.3025007 -12.1368780 1.18818605 # H11
47 6 6 0.190890 13.3037004 -13.5575151 0.362266004 # H12
48 6 6 0.155900 13.1203861 -12.3541393 -1.61338603 # H2
49 7 1 -0.383530 -7.30868483 1.98100996 -20.2830448 # C1
50 7 2 -0.169515 -7.07001781 0.708612978 -20.3027096 # C2
51 7 3 0.512161 -5.73225880 0.202507004 -20.3010769 # C3
52 7 4 -0.488411 -5.43612814 -0.952274978 -20.3142071 # O4
53 7 5 -0.008385 -5.06813622 0.916005015 -20.2797470 # H5
54 7 6 0.190890 -6.58880091 2.61459494 -20.2614193 # H11
55 7 6 0.190890 -8.20847225 2.34063601 -20.3057766 # H12
56 7 6 0.155900 -7.77513409 6.09709993E-02 -20.2895851 # H2
57 8 1 -0.383530 -5.87671185 4.18151617 -1.37421799 # C1
58 8 2 -0.169515 -5.65244818 3.10606408 -0.689052999 # C2
59 8 3 0.512161 -6.07555485 1.82301903 -1.15865099 # C3
60 8 4 -0.488411 -5.90123606 0.791799009 -0.586300015 # O4
61 8 5 -0.008385 -6.52656603 1.87648702 -2.02139306 # H5
62 8 6 0.190890 -6.32938480 4.13924789 -2.21886611 # H11
63 8 6 0.190890 -5.61604881 5.06067514 -1.06021202 # H12
64 8 6 0.155900 -5.17204189 3.12427092 0.139004007 # H2
65 9 1 -0.383530 -7.32244301 -12.3331347 -14.9702759 # C1
66 9 2 -0.169515 -6.44215107 -13.2280750 -15.2873135 # C2
67 9 3 0.512161 -5.64057207 -13.8688507 -14.2910080 # C3
68 9 4 -0.488411 -4.81564188 -14.7021923 -14.5064650 # O4
69 9 5 -0.008385 -5.84731483 -13.5528603 -13.3921204 # H5
70 9 6 0.190890 -7.45994282 -12.0835562 -14.0543432 # H11
71 9 6 0.190890 -7.85821009 -11.8739614 -15.6347876 # H12
72 9 6 0.155900 -6.31492519 -13.5149317 -16.1919270 # H2
73 10 1 -0.383530 3.26484609 12.9267807 -14.8935518 # C1
74 10 2 -0.169515 3.15431690 13.1683578 -16.1607418 # C2
75 10 3 0.512161 4.28506708 13.5578814 -16.9452305 # C3
76 10 4 -0.488411 4.26075888 13.7919502 -18.1139927 # O4
77 10 5 -0.008385 5.10213184 13.6067457 -16.4155025 # H5
78 10 6 0.190890 4.11375523 12.9992733 -14.4528389 # H11
79 10 6 0.190890 2.50489497 12.6830950 -14.3435020 # H12
80 10 6 0.155900 2.32276392 13.0678749 -16.6246624 # H2
81 11 1 -0.383530 10.4497681 -7.91295481 9.91688728 # C1
82 11 2 -0.169515 10.0746632 -8.38459873 11.0628319 # C2
83 11 3 0.512161 10.1833010 -7.60758114 12.2587357 # C3
84 11 4 -0.488411 9.85561657 -7.97235584 13.3454523 # O4
85 11 5 -0.008385 10.5553246 -6.72217894 12.0906429 # H5
86 11 6 0.190890 10.8055782 -7.02507019 9.84484768 # H11
87 11 6 0.190890 10.4031401 -8.43393803 9.10087967 # H12
88 11 6 0.155900 9.68540955 -9.25513363 11.1491528 # H2
89 12 1 -0.383530 8.71154785 15.6674070 0.686405003 # C1
90 12 2 -0.169515 8.27183533 14.6657238 -6.14600023E-03 # C2
91 12 3 0.512161 6.88956594 14.5527010 -0.355865002 # C3
92 12 4 -0.488411 6.41392994 13.6640253 -0.992586017 # O4
93 12 5 -0.008385 6.36165380 15.2998552 -1.87260006E-02 # H5
94 12 6 0.190890 8.11661625 16.3616524 0.976593971 # H11
95 12 6 0.190890 9.64073753 15.7478828 0.950214028 # H12
96 12 6 0.155900 8.85595894 13.9814615 -0.333842009 # H2
97 13 1 -0.383530 -6.58069515 -7.34144115 -5.20556307 # C1
98 13 2 -0.169515 -6.54698610 -7.18924284 -6.49088097 # C2
99 13 3 0.512161 -5.37800407 -7.51450205 -7.24813509 # C3
100 13 4 -0.488411 -5.27481508 -7.40492010 -8.43081474 # O4
101 13 5 -0.008385 -4.65635920 -7.85152292 -6.68578291 # H5
102 13 6 0.190890 -5.81942415 -7.68270493 -4.73213387 # H11
103 13 6 0.190890 -7.35692692 -7.10546780 -4.67523718 # H12
104 13 6 0.155900 -7.30802917 -6.88281298 -6.98455477 # H2
105 14 1 -0.383530 9.59854412 -3.77868700 20.2716808 # C1
106 14 2 -0.169515 10.3009968 -4.86591816 20.3005333 # C2
107 14 3 0.512161 9.67923546 -6.15392923 20.2869396 # C3
108 14 4 -0.488411 10.2591581 -7.19539785 20.3074112 # O4
109 14 5 -0.008385 8.70680714 -6.09356499 20.2504311 # H5
110 14 6 0.190890 8.64068985 -3.81467199 20.2349415 # H11
111 14 6 0.190890 10.0031786 -2.89845991 20.3022709 # H12
112 14 6 0.155900 11.2583637 -4.85023689 20.3024769 # H2
113 15 1 -0.383530 -6.05464077 -10.7267342 -17.6852646 # C1
114 15 2 -0.169515 -5.82951784 -9.45285130 -17.6315422 # C2
115 15 3 0.512161 -4.63555622 -8.93266106 -17.0402718 # C3
116 15 4 -0.488411 -4.35866117 -7.77591515 -16.9586811 # O4
117 15 5 -0.008385 -4.05073595 -9.63858318 -16.7082272 # H5
118 15 6 0.190890 -5.41888380 -11.3522806 -17.3322296 # H11
119 15 6 0.190890 -6.86811686 -11.0944910 -18.0627232 # H12
120 15 6 0.155900 -6.43578815 -8.81520367 -18.0092258 # H2
121 16 1 -0.383530 -2.25850511 7.53988695 -2.51386404 # C1
122 16 2 -0.169515 -3.08745599 7.00839710 -3.35452008 # C2
123 16 3 0.512161 -3.45212889 5.62807894 -3.26802993 # C3
124 16 4 -0.488411 -4.20978308 5.07189178 -4.00151777 # O4
125 16 5 -0.008385 -3.01291800 5.17661190 -2.52380896 # H5
126 16 6 0.190890 -1.87342000 7.01698208 -1.80788302 # H11
127 16 6 0.190890 -1.98429596 8.46775436 -2.57163906 # H12
128 16 6 0.155900 -3.50826192 7.52225208 -4.04421186 # H2
129 17 1 -0.383530 11.6016598 -5.97756386 16.0299320 # C1
130 17 2 -0.169515 12.1271772 -6.06062078 14.8495607 # C2
131 17 3 0.512161 12.8031454 -7.24485397 14.4178143 # C3
132 17 4 -0.488411 13.3064117 -7.39541721 13.3475609 # O4
133 17 5 -0.008385 12.8046007 -7.93896914 15.1025000 # H5
134 17 6 0.190890 11.6503849 -6.71511221 16.6413059 # H11
135 17 6 0.190890 11.1593857 -5.17500305 16.3457718 # H12
136 17 6 0.155900 12.0586882 -5.34812593 14.2135887 # H2
137 18 1 -0.383530 0.552627981 5.50521183 -14.4969959 # C1
138 18 2 -0.169515 0.797068000 4.84679794 -15.5846920 # C2
139 18 3 0.512161 0.796473980 3.41664195 -15.6046648 # C3
140 18 4 -0.488411 1.00803304 2.74434400 -16.5662498 # O4
141 18 5 -0.008385 0.592453003 3.03577304 -14.7306471 # H5
142 18 6 0.190890 0.359555006 5.04466915 -13.6780014 # H11
143 18 6 0.190890 0.570550978 6.47365522 -14.4614773 # H12
144 18 6 0.155900 0.957737982 5.28873682 -16.4187641 # H2
145 19 1 -0.383530 12.9795418 -13.9768353 3.86406398 # C1
146 19 2 -0.169515 12.7484751 -13.0458040 4.73362207 # C2
147 19 3 0.512161 12.9618206 -13.2634659 6.13106823 # C3
148 19 4 -0.488411 12.7755432 -12.4548693 6.98714018 # O4
149 19 5 -0.008385 13.2913923 -14.1617718 6.31821394 # H5
150 19 6 0.190890 13.3057709 -14.8355846 4.14020300 # H11
151 19 6 0.190890 12.8196068 -13.8528738 2.91616106 # H12
152 19 6 0.155900 12.4557285 -12.1719074 4.47399998 # H2
153 20 1 -0.383530 10.0063295 7.63660812 -5.89331102 # C1
154 20 2 -0.169515 8.77526188 8.01237965 -6.03335190 # C2
155 20 3 0.512161 7.84783316 7.94227219 -4.94674921 # C3
156 20 4 -0.488411 6.70363617 8.27304459 -4.99957418 # O4
157 20 5 -0.008385 8.25821018 7.59447813 -4.13359213 # H5
158 20 6 0.190890 10.3253508 7.30633593 -5.05112600 # H11
159 20 6 0.190890 10.6416407 7.65723324 -6.62503386 # H12
160 20 6 0.155900 8.44758987 8.37677479 -6.85593700 # H2
161 21 1 -0.383530 10.7298956 -17.2872791 -11.3612909 # C1
162 21 2 -0.169515 11.9449444 -17.2866478 -10.9140759 # C2
163 21 3 0.512161 12.2211781 -17.2987137 -9.51076031 # C3
164 21 4 -0.488411 13.3106050 -17.3030396 -9.02649117 # O4
165 21 5 -0.008385 11.4068375 -17.3112087 -8.97476959 # H5
166 21 6 0.190890 9.98505688 -17.3013573 -10.7570181 # H11
167 21 6 0.190890 10.5254555 -17.2572536 -12.3082685 # H12
168 21 6 0.155900 12.7006998 -17.3075542 -11.5016098 # H2
169 22 1 -0.383530 8.05819511 17.3029289 17.9337139 # C1
170 22 2 -0.169515 8.60920334 17.2846413 19.1052074 # C2
171 22 3 0.512161 10.0312128 17.2714729 19.2583752 # C3
172 22 4 -0.488411 10.6083002 17.2586098 20.3015404 # O4
173 22 5 -0.008385 10.4945650 17.2821751 18.4005966 # H5
174 22 6 0.190890 8.59562588 17.3135109 17.1392403 # H11
175 22 6 0.190890 7.09666395 17.2900887 17.8122330 # H12
176 22 6 0.155900 8.08998775 17.3086720 19.9093456 # H2
177 23 1 -0.383530 -5.88374615 -7.90247917 8.80820179 # C1
178 23 2 -0.169515 -4.75306892 -8.52423191 8.70173264 # C2
179 23 3 0.512161 -4.07806921 -9.04274654 9.85119534 # C3
180 23 4 -0.488411 -3.03954697 -9.62792206 9.83044434 # O4
181 23 5 -0.008385 -4.56958199 -8.87187195 10.6757021 # H5
182 23 6 0.190890 -6.29746580 -7.78060102 9.66500473 # H11
183 23 6 0.190890 -6.34320498 -7.52620983 8.04218388 # H12
184 23 6 0.155900 -4.34208584 -8.68565655 7.85212517 # H2
185 24 1 -0.383530 13.2923422 4.61779982E-02 -19.6285286 # C1
186 24 2 -0.169515 13.2956209 0.385989010 -18.3791847 # C2
187 24 3 0.512161 13.3062611 1.75997496 -17.9819508 # C3
188 24 4 -0.488411 13.3057251 2.14770103 -16.8545399 # O4
189 24 5 -0.008385 13.3061838 2.36486793 -18.7466049 # H5
190 24 6 0.190890 13.2915573 0.713069975 -20.3180103 # H11
191 24 6 0.190890 13.3071146 -0.879818022 -19.9144993 # H12
192 24 6 0.155900 13.2616673 -0.264573991 -17.6774635 # H2
193 25 1 -0.383530 -13.2396774 0.704271972 -11.1688919 # C1
194 25 2 -0.169515 -13.2537613 0.161578998 -9.99346447 # C2
195 25 3 0.512161 -13.1889524 -1.25769401 -9.82850647 # C3
196 25 4 -0.488411 -13.1931219 -1.82703495 -8.78102207 # O4
197 25 5 -0.008385 -13.1316175 -1.72582996 -10.6818256 # H5
198 25 6 0.190890 -13.1796989 0.162630007 -11.9582939 # H11
199 25 6 0.190890 -13.3047819 1.66257203 -11.2988377 # H12
200 25 6 0.155900 -13.2783737 0.687096000 -9.19344807 # H2
201 26 1 -0.383530 -13.2888680 3.36436296 -3.55776191 # C1
202 26 2 -0.169515 -13.2914438 3.15377808 -2.28026795 # C2
203 26 3 0.512161 -13.3019152 1.82748604 -1.74493098 # C3
204 26 4 -0.488411 -13.3007469 1.55679595 -0.583848000 # O4
205 26 5 -0.008385 -13.3023033 1.14774096 -2.44388795 # H5
206 26 6 0.190890 -13.2885084 2.63061190 -4.17561197 # H11
207 26 6 0.190890 -13.3037663 4.25635576 -3.93669701 # H12
208 26 6 0.155900 -13.2570591 3.87253094 -1.64859402 # H2
209 27 1 -0.383530 3.95901990 10.3741283 -18.0912991 # C1
210 27 2 -0.169515 3.78048396 9.15953445 -18.5026741 # C2
211 27 3 0.512161 3.28824997 8.88401985 -19.8170357 # C3
212 27 4 -0.488411 3.10311389 7.79497099 -20.2654610 # O4
213 27 5 -0.008385 3.12188411 9.69838333 -20.3266697 # H5
214 27 6 0.190890 3.76876497 11.1190157 -18.6649513 # H11
215 27 6 0.190890 4.27101707 10.5784388 -17.1966610 # H12
216 27 6 0.155900 3.99730611 8.40316868 -17.9570541 # H2
217 28 1 -0.383530 -3.47025490 -4.87108898 2.54403996 # C1
218 28 2 -0.169515 -3.27648091 -4.84653997 1.26412106 # C2
219 28 3 0.512161 -1.96644294 -4.98587418 0.707224011 # C3
220 28 4 -0.488411 -1.71215296 -4.97721910 -0.457527995 # O4
221 28 5 -0.008385 -1.28396106 -5.09957409 1.39416206 # H5
222 28 6 0.190890 -2.73529291 -4.98934984 3.14899898 # H11
223 28 6 0.190890 -4.34825993 -4.75636292 2.93826103 # H12
224 28 6 0.155900 -4.00121593 -4.76410580 0.643828988 # H2
225 29 1 -0.383530 -1.81577206 -14.8368578 -12.7695112 # C1
226 29 2 -0.169515 -1.46328700 -15.8895378 -13.4358168 # C2
227 29 3 0.512161 -0.112007998 -16.3582573 -13.4260578 # C3
228 29 4 -0.488411 0.284572989 -17.3191242 -14.0098772 # O4
229 29 5 -0.008385 0.467065006 -15.8024349 -12.8725882 # H5
230 29 6 0.190890 -1.17507195 -14.3494720 -12.2478914 # H11
231 29 6 0.190890 -2.72211289 -14.4935942 -12.7829142 # H12
232 29 6 0.155900 -2.09517908 -16.4084969 -13.9340076 # H2
233 30 1 -0.383530 -4.03032589 -5.66910410 10.5788164 # C1
234 30 2 -0.169515 -3.78797007 -4.45572281 10.9600172 # C2
235 30 3 0.512161 -4.30432177 -3.94600296 12.1926212 # C3
236 30 4 -0.488411 -4.12023020 -2.84440207 12.6097221 # O4
237 30 5 -0.008385 -4.83019304 -4.61040783 12.6749268 # H5
238 30 6 0.190890 -4.56008291 -6.25681496 11.1211090 # H11
239 30 6 0.190890 -3.70633602 -6.02296400 9.73662853 # H12
240 30 6 0.155900 -3.23312497 -3.86581993 10.4491739 # H2
241 31 1 -0.383530 -0.349822015 12.3750954 -13.9371624 # C1
242 31 2 -0.169515 -0.205833003 12.2555180 -12.6560249 # C2
243 31 3 0.512161 0.403522015 13.2882004 -11.8762808 # C3
244 31 4 -0.488411 0.565858006 13.2505798 -10.6957636 # O4
245 31 5 -0.008385 0.673466980 14.0506573 -12.4206924 # H5
246 31 6 0.190890 -5.38120009E-02 13.1660089 -14.3920937 # H11
247 31 6 0.190890 -0.740656972 11.6759262 -14.4829407 # H12
248 31 6 0.155900 -0.525986016 11.4889460 -12.1799269 # H2
249 32 1 -0.383530 1.89173102 -7.99110889 9.54450512 # C1
250 32 2 -0.169515 2.92676210 -7.23374605 9.72185898 # C2
251 32 3 0.512161 4.21639013 -7.60928822 9.23035812 # C3
252 32 4 -0.488411 5.21110487 -6.96338701 9.35177517 # O4
253 32 5 -0.008385 4.19882917 -8.46660614 8.76636219 # H5
254 32 6 0.190890 1.96773303 -8.82251263 9.07214832 # H11
255 32 6 0.190890 1.01560903 -7.76180410 9.88989639 # H12
256 32 6 0.155900 2.86381292 -6.38487816 10.1603346 # H2
257 33 1 -0.383530 8.58187103 3.71456504 -6.41077185 # C1
258 33 2 -0.169515 7.80676985 4.57879877 -5.83748293 # C2
259 33 3 0.512161 7.35079718 4.39353704 -4.49453306 # C3
260 33 4 -0.488411 6.64122391 5.14599419 -3.90148902 # O4
261 33 5 -0.008385 7.69405222 3.57127905 -4.09872723 # H5
262 33 6 0.190890 8.87259007 2.92981410 -5.94196796 # H11
263 33 6 0.190890 8.88205719 3.81412101 -7.32698298 # H12
264 33 6 0.155900 7.53428984 5.38456106 -6.27714491 # H2
265 34 1 -0.383530 -7.58911991 -15.8715715 3.38903499 # C1
266 34 2 -0.169515 -7.00546503 -15.9128761 2.23405290 # C2
267 34 3 0.512161 -5.89470482 -16.7809696 1.99244201 # C3
268 34 4 -0.488411 -5.31136084 -16.8759480 0.957031012 # O4
269 34 5 -0.008385 -5.66054010 -17.3076992 2.77877212 # H5
270 34 6 0.190890 -7.29024220 -16.4297256 4.10963583 # H11
271 34 6 0.190890 -8.32871056 -15.2735319 3.57563591 # H12
272 34 6 0.155900 -7.31120682 -15.3889046 1.49325895 # H2
273 35 1 -0.383530 13.2872534 -2.01540899 -13.6815567 # C1
274 35 2 -0.169515 13.2996521 -0.787131011 -13.2722607 # C2
275 35 3 0.512161 13.3013239 0.304865003 -14.1959963 # C3
276 35 4 -0.488411 13.3082571 1.45820498 -13.8940887 # O4
277 35 5 -0.008385 13.2880468 3.53100011E-03 -15.1231499 # H5
278 35 6 0.190890 13.2734270 -2.21980906 -14.6186590 # H11
279 35 6 0.190890 13.3078880 -2.76661801 -13.0694113 # H12
280 35 6 0.155900 13.2787094 -0.563387990 -12.3415079 # H2
281 36 1 -0.383530 -11.5360184 1.89386702 -20.2880497 # C1
282 36 2 -0.169515 -12.2934570 2.94391704 -20.2830181 # C2
283 36 3 0.512161 -11.7379847 4.26193094 -20.2890415 # C3
284 36 4 -0.488411 -12.3705502 5.27249908 -20.2891006 # O4
285 36 5 -0.008385 -10.7631369 4.25115108 -20.3012466 # H5
286 36 6 0.190890 -10.5806236 1.97856402 -20.3014202 # H11
287 36 6 0.190890 -11.8959131 0.994273007 -20.2621422 # H12
288 36 6 0.155900 -13.2485323 2.87935710 -20.3045425 # H2
289 37 1 -0.383530 -6.22121477 7.93936491 6.75726604 # C1
290 37 2 -0.169515 -5.21417189 8.24824905 6.00440598 # C2
291 37 3 0.512161 -4.40025902 7.23941422 5.39980316 # C3
292 37 4 -0.488411 -3.46235299 7.44726515 4.69374418 # O4
293 37 5 -0.008385 -4.70213890 6.33953524 5.62269020 # H5
294 37 6 0.190890 -6.44702911 7.02173996 6.92189121 # H11
295 37 6 0.190890 -6.76931906 8.61032772 7.19184113 # H12
296 37 6 0.155900 -4.99439907 9.15766907 5.80079985 # H2
297 38 1 -0.383530 1.64906001 -3.82819891 20.0371094 # C1
298 38 2 -0.169515 2.32870889 -4.87711000 19.6991653 # C2
299 38 3 0.512161 1.74151599 -6.18121004 19.7156963 # C3
300 38 4 -0.488411 2.30221200 -7.18940210 19.4147682 # O4
301 38 5 -0.008385 0.808532000 -6.16192913 19.9981194 # H5
302 38 6 0.190890 0.730257988 -3.90373802 20.3021107 # H11
303 38 6 0.190890 2.03797889 -2.94051790 20.0522575 # H12
304 38 6 0.155900 3.23597789 -4.81747198 19.3989887 # H2
305 39 1 -0.383530 -12.3775301 -17.1559811 13.3011303 # C1
306 39 2 -0.169515 -11.8761787 -16.7646790 12.1733570 # C2
307 39 3 0.512161 -10.4745302 -16.5202179 12.0271950 # C3
308 39 4 -0.488411 -9.94201088 -16.1633396 11.0219831 # O4
309 39 5 -0.008385 -9.98316956 -16.6866665 12.8526974 # H5
310 39 6 0.190890 -11.8150702 -17.2961082 14.0654163 # H11
311 39 6 0.190890 -13.3274908 -17.3050385 13.4228745 # H12
312 39 6 0.155900 -12.4164162 -16.6527481 11.3907862 # H2
313 40 1 -0.383530 5.86307621 -16.4609451 -0.311414003 # C1
314 40 2 -0.169515 5.49931288 -16.9094086 -1.47025001 # C2
315 40 3 0.512161 4.12597609 -16.9106483 -1.86986399 # C3
316 40 4 -0.488411 3.71765804 -17.3025341 -2.91919303 # O4
317 40 5 -0.008385 3.54155803 -16.5415401 -1.18225396 # H5
318 40 6 0.190890 5.21563482 -16.1130657 0.304971009 # H11
319 40 6 0.190890 6.78638315 -16.4730606 -1.67590007E-02 # H12
320 40 6 0.155900 6.13445711 -17.2283707 -2.11185288 # H2
321 41 1 -0.383530 13.2892990 12.3572693 13.2307806 # C1
322 41 2 -0.169515 13.3024426 12.2003727 14.5159092 # C2
323 41 3 0.512161 13.3150969 13.3228073 15.4023218 # C3
324 41 4 -0.488411 13.3233891 13.2562914 16.5926552 # O4
325 41 5 -0.008385 13.3082619 14.1715775 14.9225960 # H5
326 41 6 0.190890 13.2823133 13.2350731 12.8440742 # H11
327 41 6 0.190890 13.3025656 11.6077824 12.6163254 # H12
328 41 6 0.155900 13.2747765 11.3329344 14.9203663 # H2
329 42 1 -0.383530 -5.18415785 -2.84140801 -12.5985622 # C1
330 42 2 -0.169515 -4.08545494 -3.04385900 -11.9441872 # C2
331 42 3 0.512161 -2.99556303 -3.76509595 -12.5253048 # C3
332 42 4 -0.488411 -1.95514703 -3.98632908 -11.9868078 # O4
333 42 5 -0.008385 -3.19094491 -4.05933523 -13.4340639 # H5
334 42 6 0.190890 -5.28867483 -3.16834092 -13.4942856 # H11
335 42 6 0.190890 -5.93991518 -2.37379789 -12.2117329 # H12
336 42 6 0.155900 -3.94973898 -2.69571805 -11.0626097 # H2
337 43 1 -0.383530 13.2908096 16.4811535 7.79574203 # C1
338 43 2 -0.169515 13.2903214 15.3375692 8.40283298 # C2
339 43 3 0.512161 13.2965708 14.1076860 7.67269897 # C3
340 43 4 -0.488411 13.3006506 13.0202627 8.16145515 # O4
341 43 5 -0.008385 13.3052158 14.2514000 6.70840406 # H5
342 43 6 0.190890 13.3008556 16.5276318 6.83768702 # H11
343 43 6 0.190890 13.2646770 17.3231716 8.27510262 # H12
344 43 6 0.155900 13.3152037 15.2712603 9.35770607 # H2
345 44 1 -0.383530 12.7737589 -15.3878736 19.4174061 # C1
346 44 2 -0.169515 11.5608540 -15.7674809 19.6645966 # C2
347 44 3 0.512161 10.9835968 -16.8940449 18.9987335 # C3
348 44 4 -0.488411 9.87818527 -17.3034706 19.1771183 # O4
349 44 5 -0.008385 11.6043453 -17.3101006 18.3725033 # H5
350 44 6 0.190890 13.3156481 -15.8605127 18.7825069 # H11
351 44 6 0.190890 13.1723595 -14.6139688 19.8436146 # H12
352 44 6 0.155900 11.0168839 -15.3296289 20.3197174 # H2
353 45 1 -0.383530 -8.59535503 -15.2453499 -1.10276902 # C1
354 45 2 -0.169515 -9.72276688 -15.6570234 -0.617165983 # C2
355 45 3 0.512161 -10.3359623 -16.8634624 -1.08002901 # C3
356 45 4 -0.488411 -11.3676300 -17.3059464 -0.678460002 # O4
357 45 5 -0.008385 -9.80741310 -17.3042831 -1.77061296 # H5
358 45 6 0.190890 -8.14240265 -15.7468700 -1.78353500 # H11
359 45 6 0.190890 -8.17744064 -14.4192419 -0.815788984 # H12
360 45 6 0.155900 -10.1721954 -15.1884241 8.65600035E-02 # H2
361 46 1 -0.383530 -1.86570501 7.12620592 11.2006416 # C1
362 46 2 -0.169515 -0.796261013 6.94190598 10.4944792 # C2
363 46 3 0.512161 -0.134781003 8.03264141 9.84757328 # C3
364 46 4 -0.488411 0.853177011 7.94049597 9.18663788 # O4
365 46 5 -0.008385 -0.580556989 8.88401318 10.0120230 # H5
366 46 6 0.190890 -2.23589706 8.00437832 11.3097353 # H11
367 46 6 0.190890 -2.33816695 6.39533281 11.6273394 # H12
368 46 6 0.155900 -0.392762989 6.07845116 10.4026308 # H2
369 47 1 -0.383530 -11.3400049 -6.45618296 -0.507533014 # C1
370 47 2 -0.169515 -10.1492987 -6.92288208 -0.709411979 # C2
371 47 3 0.512161 -9.07041359 -6.06703806 -1.09578300 # C3
372 47 4 -0.488411 -7.95016813 -6.42326403 -1.29462898 # O4
373 47 5 -0.008385 -9.34858799 -5.13594484 -1.17501795 # H5
374 47 6 0.190890 -11.5232811 -5.52003002 -0.608313024 # H11
375 47 6 0.190890 -12.0865679 -7.02545881 -0.266631007 # H12
376 47 6 0.155900 -9.93954277 -7.84815407 -0.580282986 # H2
377 48 1 -0.383530 10.1060696 -10.8906565 -4.38045311 # C1
378 48 2 -0.169515 9.87763309 -10.4073181 -3.20123911 # C2
379 48 3 0.512161 10.0377970 -9.01315594 -2.92482591 # C3
380 48 4 -0.488411 9.84263420 -8.49691677 -1.86803997 # O4
381 48 5 -0.008385 10.3230448 -8.51181221 -3.71088004 # H5
382 48 6 0.190890 10.3840466 -10.3193274 -5.09909201 # H11
383 48 6 0.190890 10.0233707 -11.8357801 -4.57886219 # H12
384 48 6 0.155900 9.56646442 -10.9558792 -2.48078394 # H2
385 49 1 -0.383530 -10.5948477 14.9834414 -9.81464481 # C1
386 49 2 -0.169515 -11.2431669 14.8205891 -8.70581532 # C2
387 49 3 0.512161 -12.6479263 14.5516357 -8.69798470 # C3
388 49 4 -0.488411 -13.3089380 14.3867378 -7.71958780 # O4
389 49 5 -0.008385 -13.0199480 14.5077114 -9.59813213 # H5
390 49 6 0.190890 -11.0449829 14.9213934 -10.6594267 # H11
391 49 6 0.190890 -9.64762402 15.1877499 -9.83675194 # H12
392 49 6 0.155900 -10.8048887 14.8446312 -7.85485411 # H2
393 50 1 -0.383530 -3.14957094 16.1085739 -2.53020191 # C1
394 50 2 -0.169515 -1.95825303 16.3423615 -2.08025908 # C2
395 50 3 0.512161 -0.992722988 17.0495796 -2.86342096 # C3
396 50 4 -0.488411 0.118584000 17.3046246 -2.51508904 # O4
397 50 5 -0.008385 -1.34646797 17.3165112 -3.73187089 # H5
398 50 6 0.190890 -3.41276503 16.4113960 -3.40149689 # H11
399 50 6 0.190890 -3.80834603 15.6121149 -2.02127290 # H12
400 50 6 0.155900 -1.68855202 16.0783424 -1.20028496 # H2
401 51 1 -0.383530 -11.6942310 -1.26454902 20.3024082 # C1
402 51 2 -0.169515 -11.2525806 -2.48127103 20.2728386 # C2
403 51 3 0.512161 -9.85080242 -2.76323199 20.2373333 # C3
404 51 4 -0.488411 -9.37141132 -3.85455394 20.2130871 # O4
405 51 5 -0.008385 -9.31112289 -1.95125401 20.2429008 # H5
406 51 6 0.190890 -11.0865593 -0.522358000 20.3065605 # H11
407 51 6 0.190890 -12.6407804 -1.05597401 20.3047161 # H12
408 51 6 0.155900 -11.8424702 -3.23487711 20.3029919 # H2
409 52 1 -0.383530 6.77964401 3.85053897 8.99700928 # C1
410 52 2 -0.169515 7.06772089 3.46142292 7.79619884 # C2
411 52 3 0.512161 6.61183214 2.20274997 7.29256010 # C3
412 52 4 -0.488411 6.83332300 1.78074801 6.19974518 # O4
413 52 5 -0.008385 6.08046293 1.71402502 7.94783688 # H5
414 52 6 0.190890 6.24662781 3.30169106 9.57561874 # H11
415 52 6 0.190890 7.09872484 4.69029093 9.36096954 # H12
416 52 6 0.155900 7.56904507 4.01031113 7.19271183 # H2
417 53 1 -0.383530 -8.38457489 5.72780323 4.80272388 # C1
418 53 2 -0.169515 -7.42921782 5.55760098 3.94559693 # C2
419 53 3 0.512161 -7.52362299 4.57343817 2.91203094 # C3
420 53 4 -0.488411 -6.68873596 4.36308002 2.08734894 # O4
421 53 5 -0.008385 -8.36578941 4.08330011 2.94542408 # H5
422 53 6 0.190890 -9.18283844 5.19772816 4.75883198 # H11
423 53 6 0.190890 -8.32724571 6.37496710 5.52199888 # H12
424 53 6 0.155900 -6.64033604 6.10020494 3.95236301 # H2
425 54 1 -0.383530 13.2863302 7.59707308 -3.03312302 # C1
426 54 2 -0.169515 13.2819548 6.65967512 -3.92621303 # C2
427 54 3 0.512161 13.2899914 6.96363688 -5.32381392 # C3
428 54 4 -0.488411 13.2907572 6.15623617 -6.20102119 # O4
429 54 5 -0.008385 13.3029528 7.92387676 -5.49223518 # H5
430 54 6 0.190890 13.3005581 8.52065372 -3.29182196 # H11
431 54 6 0.190890 13.2590628 7.40852690 -2.08277011 # H12
432 54 6 0.155900 13.3026457 5.73268890 -3.68732095 # H2
433 55 1 -0.383530 10.4320917 -2.04726911 -16.6188393 # C1
434 55 2 -0.169515 10.0810957 -1.50193095 -15.4982357 # C2
435 55 3 0.512161 8.86221695 -0.762929022 -15.3800983 # C3
436 55 4 -0.488411 8.47260094 -0.238047004 -14.3830585 # O4
437 55 5 -0.008385 8.36403275 -0.737075984 -16.2177963 # H5
438 55 6 0.190890 9.87586308 -1.97106302 -17.3966141 # H11
439 55 6 0.190890 11.2647943 -2.53260493 -16.7214108 # H12
440 55 6 0.155900 10.6059113 -1.59630799 -14.7029610 # H2
441 56 1 -0.383530 -3.85809994 -17.2819977 -19.4564018 # C1
442 56 2 -0.169515 -4.52169609 -17.3049068 -18.3448906 # C2
443 56 3 0.512161 -3.85461712 -17.2908516 -17.0797596 # C3
444 56 4 -0.488411 -4.39734602 -17.3060493 -16.0183449 # O4
445 56 5 -0.008385 -2.88478708 -17.2588978 -17.1746407 # H5
446 56 6 0.190890 -2.89941907 -17.2495022 -19.4544773 # H11
447 56 6 0.190890 -4.29381180 -17.3129940 -20.3216515 # H12
448 56 6 0.155900 -5.47901583 -17.3025551 -18.3266335 # H2
449 57 1 -0.383530 6.48116589 -13.9669571 11.9780807 # C1
450 57 2 -0.169515 5.59497976 -14.2878227 12.8658104 # C2
451 57 3 0.512161 4.25731087 -13.7861996 12.7968073 # C3
452 57 4 -0.488411 3.38891506 -14.0403481 13.5731344 # O4
453 57 5 -0.008385 4.12058783 -13.2055655 12.0255976 # H5
454 57 6 0.190890 6.25614405 -13.3867826 11.2480860 # H11
455 57 6 0.190890 7.39722204 -14.2805643 12.0223303 # H12
456 57 6 0.155900 5.79137802 -14.8925886 13.5816917 # H2
457 58 1 -0.383530 12.3389187 -5.58547115 -16.5266914 # C1
458 58 2 -0.169515 11.6790867 -6.61459780 -16.9531460 # C2
459 58 3 0.512161 10.2654791 -6.72260523 -16.7639523 # C3
460 58 4 -0.488411 9.59235001 -7.63536406 -17.1315899 # O4
461 58 5 -0.008385 9.89573479 -5.95003414 -16.2981033 # H5
462 58 6 0.190890 11.8897820 -4.86706781 -16.0769119 # H11
463 58 6 0.190890 13.2997169 -5.50686693 -16.6274529 # H12
464 58 6 0.155900 12.1043472 -7.32482004 -17.4343319 # H2
465 59 1 -0.383530 -1.71444905 13.9638872 20.2831306 # C1
466 59 2 -0.169515 -0.459668994 13.6459904 20.3116436 # C2
467 59 3 0.512161 -3.82019989E-02 12.2792082 20.3070621 # C3
468 59 4 -0.488411 1.09565794 11.9113503 20.3278084 # O4
469 59 5 -0.008385 -0.791628003 11.6611347 20.2766190 # H5
470 59 6 0.190890 -2.39160490 13.2851639 20.2527351 # H11
471 59 6 0.190890 -2.01728606 14.8842955 20.3076916 # H12
472 59 6 0.155900 0.230880007 14.3092566 20.3073235 # H2
473 60 1 -0.383530 10.0410881 10.9776192 13.7755709 # C1
474 60 2 -0.169515 9.68565178 12.0964975 13.2295675 # C2
475 60 3 0.512161 10.0113087 13.3534861 13.8292980 # C3
476 60 4 -0.488411 9.72217655 14.4209547 13.3839884 # O4
477 60 5 -0.008385 10.5141468 13.2474432 14.6578531 # H5
478 60 6 0.190890 10.5379810 10.9685011 14.5960226 # H11
479 60 6 0.190890 9.80973816 10.1172981 13.3937473 # H12
480 60 6 0.155900 9.21961975 12.1264114 12.3936739 # H2
481 61 1 -0.383530 -10.6356649 -17.3040485 -5.19081306 # C1
482 61 2 -0.169515 -11.2470570 -17.3027439 -6.33210182 # C2
483 61 3 0.512161 -12.6751719 -17.3049583 -6.41102982 # C3
484 61 4 -0.488411 -13.3058853 -17.2998390 -7.42274284 # O4
485 61 5 -0.008385 -13.0931311 -17.3032112 -5.53017807 # H5
486 61 6 0.190890 -11.1309004 -17.3010902 -4.36931181 # H11
487 61 6 0.190890 -9.66922379 -17.3245392 -5.11985016 # H12
488 61 6 0.155900 -10.7702770 -17.2708473 -7.16183901 # H2
489 62 1 -0.383530 9.80171585 9.37845802 19.8846741 # C1
490 62 2 -0.169515 9.80004215 10.6648197 20.0316868 # C2
491 62 3 0.512161 8.58234692 11.3900299 20.2241306 # C3
492 62 4 -0.488411 8.50327587 12.5706244 20.3701935 # O4