LAMMPS data file via write_data, version 29 Sep 2021, timestep = 2000100

4096 atoms
6 atom types
3584 bonds
6 bond types
4608 angles
8 angle types
4096 dihedrals
6 dihedral types
1536 impropers
3 improper types

-14.602223768703794 14.602223768703794 xlo xhi
-18.496150107026825 18.496150107026825 ylo yhi
-21.41659486076493 21.41659486076493 zlo zhi

Masses

1 12.01
2 12.01
3 12.01
4 16
5 1.008
6 1.008

Pair Coeffs # lj/cut/coul/long

1 0.086 3.39967
2 0.086 3.39967
3 0.086 3.39967
4 0.21 2.95992
5 0.015 2.51055
6 0.015 2.59964

Bond Coeffs # harmonic

1 343.1 1.088
2 547.3 1.346
3 342.5 1.088
4 354.5 1.482
5 310.7 1.112
6 637.7 1.218

Angle Coeffs # harmonic

1 49.6 119.94
2 65.5 120.42
3 38.1 116.9
4 49.5 120.45
5 46.7 114.89
6 68.8 123.2
7 46.5 116.46
8 54.2 120.7

Dihedral Coeffs # charmm

1 2.175 2 180 0
2 2.175 2 180 0
3 6.65 2 180 0
4 6.65 2 180 0
5 2.175 2 180 0
6 2.175 2 180 0

Improper Coeffs # cvff

1 10.5 -1 2
2 1.1 -1 2
3 1.1 -1 2

Atoms # full

1283 161 3 0.512161 -12.480906795498958 -14.850734601874443 -13.643538083161047 0 0 0
1282 161 2 -0.169515 -12.307072028119823 -13.690961365582593 -14.514510532773443 0 0 0
3250 407 2 -0.169515 -11.937956522028927 -10.631783552709445 -18.368225338617705 0 0 0
3850 482 2 -0.169515 -13.366991127757627 -16.715554991459424 -17.39773037567642 0 0 0
1281 161 1 -0.38353 -11.762067258110104 -12.522922781522933 -14.118593037786138 0 0 0
3851 482 3 0.512161 -11.890934185787703 -16.672431481992035 -17.53792005097107 0 0 0
1288 161 6 0.1559 -12.72912955220427 -13.861756143228305 -15.520887917240822 0 0 0
3251 407 3 0.512161 -10.795374846322932 -9.88113042510824 -17.838438992279496 0 0 0
3252 407 4 -0.488411 -10.045587206338709 -10.340202724403964 -16.98762513326779 0 0 0
3253 407 5 -0.008385 -10.554105220560814 -8.928852020933414 -18.29778692185439 0 0 0
3256 407 6 0.1559 -12.03762334112106 -11.689732308638227 -18.153353006162057 0 0 0
1287 161 6 0.19089 -11.643763919089514 -11.640997764788036 -14.808076557312198 0 0 0
3249 407 1 -0.38353 -12.767746097108285 -10.148763656724517 -19.28581044020641 0 0 0
1284 161 4 -0.488411 -13.028686428105537 -15.853345653273015 -14.073954623931934 0 0 0
1286 161 6 0.19089 -11.452087186673069 -12.438915174810766 -13.106005781813261 0 0 0
3908 489 4 -0.488411 -10.270787306078313 -13.608609586669159 -19.89371152079499 0 0 0
1285 161 5 -0.008385 -12.198552877933961 -14.730660507355111 -12.570949833973065 0 0 0
71 9 6 0.19089 -8.752566434406004 -12.394198451513741 -13.288053099969865 0 0 0
2449 307 1 -0.38353 -11.098033808747614 -8.851057233232991 -13.62482232477457 0 0 0
2454 307 6 0.19089 -11.870410934295792 -8.098662406593627 -13.706777744248367 0 0 0
2455 307 6 0.19089 -11.386377777778819 -9.759821018328694 -13.12690344447376 0 0 0
2450 307 2 -0.169515 -9.907411837718191 -8.732764720339732 -14.223929112017437 0 0 0
2451 307 3 0.512161 -9.580157691612497 -7.524436295865197 -14.972727430968934 0 0 0
3907 489 3 0.512161 -10.183129958464338 -13.685189277302587 -18.65741727653828 0 0 0
3909 489 5 -0.008385 -11.099957061322662 -13.865021230219837 -18.082097537285566 0 0 0
2456 307 6 0.1559 -9.152522446471568 -9.506380322795053 -14.162675342711264 0 0 0
3910 489 6 0.19089 -9.773141912131647 -13.824021028233009 -16.022397496270344 0 0 0
3906 489 2 -0.169515 -8.94622260008476 -13.43202050274368 -17.91455552135946 0 0 0
3852 482 4 -0.488411 -11.179333486999308 -16.280583324328123 -16.64150822587571 0 0 0
3853 482 5 -0.008385 -11.515661850405877 -17.024812883520152 -18.47893812497875 0 0 0
896 112 6 0.1559 -9.715539761187582 -16.55616958357895 -12.922777788274992 0 0 0
890 112 2 -0.169515 -9.308311608708532 -16.92978432765461 -11.927299252882188 0 0 0
3963 496 3 0.512161 -8.963159836808645 -17.60008841909099 -19.104028824992763 0 1 0
2452 307 4 -0.488411 -8.541717298481398 -7.342845091703513 -15.622174887051042 0 0 0
3905 489 1 -0.38353 -8.873386178529927 -13.584726311413625 -16.56484613433117 0 0 0
65 9 1 -0.38353 -8.267634729984058 -13.325282471426618 -13.124008218437075 0 0 0
3254 407 6 0.19089 -12.642287331036878 -9.128601318074503 -19.63720589332562 0 0 0
3965 496 5 -0.008385 -8.483465416208386 -16.771023993549232 -18.58018410284599 0 1 0
839 105 6 0.19089 -8.163399329139354 -7.983799223972326 -18.586718987957152 0 0 1
2313 290 1 -0.38353 -8.099156130990764 -7.884921363392515 -11.83724090541283 0 0 0
3504 438 6 0.1559 -12.528938236987123 -13.703283762845329 -20.311001464867612 0 0 0
1083 136 3 0.512161 -14.23456221387007 -8.312274227915632 -16.158081256837963 1 0 0
3012 377 4 -0.488411 -13.23124337295311 -6.809474718380065 -19.043237978019185 0 0 0
3456 432 6 0.1559 -12.455292300791267 -18.239909278978935 -12.39829034743537 0 1 0
3856 482 6 0.1559 -13.729557522215567 -16.386468038448857 -16.442016309224492 0 0 0
1081 136 1 -0.38353 -14.490654041800392 -10.781182725882651 -15.85064254625349 1 0 0
2453 307 5 -0.008385 -10.355661577917488 -6.725210843776441 -15.097071298283318 0 0 0
3503 438 6 0.19089 -11.377862238398185 -15.83943115271685 -20.62086255774936 0 0 0
70 9 6 0.19089 -8.56106049509569 -14.191126793329133 -13.726185669612658 0 0 0
2314 290 2 -0.169515 -9.220946764353538 -7.2428101554824575 -11.443021498494275 0 0 0
3255 407 6 0.19089 -13.56560292211472 -10.742291524376775 -19.675685275761133 0 0 0
1084 136 4 -0.488411 -14.16517415196186 -7.193053738215221 -15.685725892479809 1 0 0
3966 496 6 0.19089 -8.351983719302336 -18.11658445872525 -16.406016870133126 0 1 0
833 105 1 -0.38353 -7.329945464905984 -8.48341964699733 -19.068921425648128 0 0 1
840 105 6 0.1559 -7.685589832754306 -10.324093051133723 -18.07687613937084 0 0 1
3964 496 4 -0.488411 -9.334487457536001 -17.55745424075286 -20.271300737119947 0 1 0
3016 377 6 0.1559 -10.692110456337378 -6.846817159683637 -18.779659344520834 0 0 0
3498 438 2 -0.169515 -12.981679743996514 -14.431125705148876 -20.9731642965153 0 0 0
894 112 6 0.19089 -7.97646833350873 -18.281659109442717 -10.991005261521009 0 0 0
1295 162 6 0.19089 -4.6125174431847835 -15.085778330518313 -18.931759988228617 0 0 0
2318 290 6 0.19089 -7.704921024565542 -8.745167136257402 -11.246330326968366 0 0 0
1467 184 3 0.512161 -14.040764820362128 -11.725090153501181 -11.58988588298755 1 0 0
3497 438 1 -0.38353 -12.333593705962807 -15.631353645983909 -21.13871591756049 0 0 0
3837 480 5 -0.008385 -9.127413717784343 -11.348466563816473 -20.869088656782722 0 0 1
3849 482 1 -0.38353 -14.184900491110016 -17.2607053817765 -18.327911247818488 0 0 0
2428 304 4 -0.488411 -13.946799429113618 -13.329122091488905 -17.749276015633257 1 0 0
1082 136 2 -0.169515 -14.365577026531112 -9.526369016061293 -15.320026454135805 1 0 0
3911 489 6 0.19089 -7.961598429622197 -13.391061965491708 -16.04542828661001 0 0 0
892 112 4 -0.488411 -10.380449730256949 -15.218326141125063 -10.759239276828426 0 0 0
891 112 3 0.512161 -9.749979409821549 -16.2503868867836 -10.717260073128825 0 0 0
889 112 1 -0.38353 -8.44418965297238 -17.95965569158268 -11.902329637100475 0 0 0
1465 184 1 -0.38353 -13.745270811938347 -9.303881467890763 -10.962725799609975 1 0 0
115 15 3 0.512161 -4.514116879475271 -7.172521002472946 -16.01650630291832 0 0 0
1654 207 6 0.19089 -13.447199785744484 -18.203690762267374 -14.968663410426618 0 1 0
1088 136 6 0.1559 -14.391054103273145 -9.345023285762567 -14.245366729359283 1 0 0
3854 482 6 0.19089 -13.817161357946278 -17.754394961300115 -19.236024682983633 0 0 0
1085 136 5 -0.008385 -14.052024360063497 -8.474994182993585 -17.22062842091498 1 0 0
2320 290 6 0.1559 -9.587303072456743 -6.434730552410786 -11.97506486316449 0 0 0
2319 290 6 0.19089 -7.570357482149134 -7.513909497571397 -12.747789398017941 0 0 0
1471 184 6 0.19089 -14.179000056203673 -8.246239347152722 -10.996613059960941 1 0 0
3912 489 6 0.1559 -8.068520813851507 -13.24158003549189 -18.56499716170859 0 0 0
3279 410 6 0.19089 -7.275592358209 -9.898234579157279 -15.737419512349048 0 0 0
3725 466 5 -0.008385 -10.023100895200681 -12.690516072407672 -10.941859017060727 0 0 0
66 9 2 -0.169515 -7.233430945724203 -13.327816370819448 -12.268245343890767 0 0 0
2574 322 6 0.19089 -7.762234533260142 -15.043044230033383 -20.851382937102493 0 0 1
1469 184 5 -0.008385 -13.031578854502827 -11.947524738059485 -11.10777481390099 1 0 0
1086 136 6 0.19089 -14.570690581134137 -10.990035571292257 -16.89399251812658 1 0 0
3724 466 4 -0.488411 -10.52848008782227 -10.77579594641768 -11.008068430097847 0 0 0
1466 184 2 -0.169515 -14.478580657945624 -10.286032443653747 -11.526638610504435 1 0 0
895 112 6 0.19089 -8.203594831849628 -18.386677867386727 -12.8413404365314 0 0 0
3148 394 4 -0.488411 -10.657997273503312 -7.6849853254736225 -21.268000358622633 0 0 1
3916 490 4 -0.488411 -5.708162463386216 -18.39276858602587 -20.044704707212862 0 0 1
2575 322 6 0.19089 -6.869740932356188 -13.517231556519038 -21.174010090336093 0 0 1
3986 499 2 -0.169515 -4.525344024913016 -18.253982149910456 -13.702873831052575 0 1 0
838 105 6 0.19089 -6.715384220445888 -7.9256860322937275 -19.748733130644716 0 0 1
1490 187 2 -0.169515 -0.9998386669480972 -18.438194871405106 -10.897668034396652 0 0 0
68 9 4 -0.488411 -5.4434134314683735 -14.525630835637958 -11.220165868796741 0 0 0
837 105 5 -0.008385 -5.326371749524396 -9.989200371268316 -20.114980913767738 0 0 1
3106 389 2 -0.169515 -1.6123554855826328 -18.30707856629564 -20.37936580091095 0 0 1
2569 322 1 -0.38353 -6.933834541878307 -14.56706370367617 -21.351557790958424 0 0 1
601 76 1 -0.38353 -0.6029765311419588 -17.846315594127617 -14.928414046827697 0 0 0
38 5 6 0.19089 -0.7019124503521166 -11.79011779201262 -11.039680633372924 0 0 0
3277 410 5 -0.008385 -4.166986794091107 -10.960267951225775 -13.826847808356268 0 0 0
72 9 6 0.1559 -6.947203879826157 -12.403991504575323 -11.73576674580621 0 0 0
2466 309 2 -0.169515 -2.8708401751242647 -6.580035679529136 -20.86960047223316 0 0 0
2471 309 6 0.19089 -0.7244514172159864 -6.628340508505602 -20.820947435468433 0 0 0
3280 410 6 0.1559 -5.341333093479825 -11.104823046558977 -16.728711662892735 0 0 0
33 5 1 -0.38353 -1.5011047881434312 -11.357707474609835 -11.638147128603412 0 0 0
2820 353 4 -0.488411 -5.451849047011729 -10.41077058648939 -11.272730491904937 0 0 0
1292 162 4 -0.488411 -7.075845475701545 -16.258246816601932 -15.327609796094748 0 0 0
806 101 6 0.19089 -1.8540145285499428 -9.911380844261007 -15.74240796558512 0 0 0
1018 128 2 -0.169515 -0.3070370577187447 -14.951360244606466 -16.73278289963635 0 0 0
2999 375 6 0.19089 -3.781031712893281 -6.822579823226915 -12.408955294146017 0 0 0
1017 128 1 -0.38353 -1.6563850058471186 -14.712521196020186 -16.613438637082016 0 0 0
1290 162 2 -0.169515 -5.846983203660223 -15.699650157264855 -17.348777720342973 0 0 0
3109 389 5 -0.008385 -3.3657818717533754 -17.587080396828032 -19.173818880259045 0 0 1
2440 305 6 0.1559 -3.90783349539214 -13.104110299757437 -20.730175703922484 0 0 1
35 5 3 0.512161 -0.32438132331112435 -9.11728937816673 -11.772013253180878 0 0 0
226 29 2 -0.169515 -1.2037442574129482 -14.588586659223488 -11.806290756586755 0 0 0
2436 305 4 -0.488411 -2.208780206948182 -14.828084463742577 -19.991037646191934 0 0 1
232 29 6 0.1559 -1.4478242884031332 -14.309804462725937 -12.793252926364698 0 0 0
3107 389 3 0.512161 -2.435738808880929 -18.22124252118411 -19.163626420221448 0 0 1
2636 330 4 -0.488411 -3.021418499810167 -8.980357482452312 -18.588600605097888 0 0 0
2639 330 6 0.19089 -0.7926782973623538 -12.876339710940963 -18.38458543485354 0 0 0
1022 128 6 0.19089 -2.399090500448322 -15.235390129379338 -17.15053166884698 0 0 0
807 101 6 0.19089 -1.2167605907111145 -8.27699533171184 -15.141664731564312 0 0 0
834 105 2 -0.169515 -7.0509085118557255 -9.773712908388267 -18.76412933042499 0 0 1
36 5 4 -0.488411 -0.35305152744891544 -7.959626923486766 -12.126678982467524 0 0 0
2472 309 6 0.1559 -3.001149096911405 -7.625003378539029 -20.69175195890415 0 0 0
3273 410 1 -0.38353 -6.382534242460139 -10.150529601402324 -15.121131010683087 0 0 0
118 15 6 0.19089 -6.314543006028618 -6.435960484336693 -17.885603442354075 0 0 0
2468 309 4 -0.488411 -5.238974761930814 -6.376257526282224 -20.967619937744796 0 0 0
1289 162 1 -0.38353 -4.907436368444062 -14.902309726925774 -17.921856741745724 0 0 0
117 15 5 -0.008385 -5.343692170156917 -7.8970496430209405 -16.211990843938466 0 0 0
805 101 5 -0.008385 -0.5126893998540218 -11.876456126072213 -15.923615658530625 0 0 0
3989 499 5 -0.008385 -4.35019128369194 -16.645164857399344 -12.309452397292626 0 1 0
1021 128 5 -0.008385 -0.4795797361147347 -16.269908597174066 -18.471322103005015 0 0 0
3987 499 3 0.512161 -4.064639473856895 -16.918528170047576 -13.3272028661933 0 1 0
3278 410 6 0.19089 -6.455935951450826 -9.895033439478832 -14.049022335520682 0 0 0
2993 375 1 -0.38353 -4.580772246845163 -6.854751098139223 -11.695761920374425 0 0 0
39 5 6 0.19089 -2.4229035160301517 -11.947653872719885 -11.833299854400732 0 0 0
2435 305 3 0.512161 -2.0743432780988726 -14.230095317973314 -21.044473198078975 0 0 1
116 15 4 -0.488411 -3.6916623540846025 -7.298220940505784 -15.151138182271364 0 0 0
2640 330 6 0.1559 -2.8710395032412475 -11.580906033639582 -18.10180674769478 0 0 0
1294 162 6 0.19089 -4.477934520821426 -14.0728612010668 -17.381744046897822 0 0 0
1296 162 6 0.1559 -6.2452933348834865 -16.5146408996264 -17.943554241606083 0 0 0
1615 202 6 0.19089 -1.39151704116947 -6.665656875731083 -17.411479023729576 0 0 0
3276 410 4 -0.488411 -3.3581727415310567 -12.105125707901731 -15.296210522012426 0 0 0
67 9 3 0.512161 -6.414757005770747 -14.556499801776255 -11.97562918018311 0 0 0
2637 330 5 -0.008385 -1.1612347651766797 -9.331835846308541 -19.420490055686454 0 0 0
2998 375 6 0.19089 -5.356856701865375 -7.5724747911843675 -11.936937409146102 0 0 0
1291 162 3 0.512161 -6.283236256699645 -15.551720360368389 -15.935569575502711 0 0 0
2635 330 3 0.512161 -2.0442685823007647 -9.680144612792514 -18.8583336345387 0 0 0
3274 410 2 -0.169515 -5.375979816894995 -10.869628256424633 -15.651479691159082 0 0 0
801 101 1 -0.38353 -1.0536317866793183 -9.353386616812259 -15.314604409639085 0 0 0
3988 499 4 -0.488411 -3.6352095845757546 -16.15183424721829 -14.172689072192902 0 1 0
2633 330 1 -0.38353 -0.8576908231707403 -11.834457261704951 -18.678343699463753 0 0 0
607 76 6 0.19089 -1.0679865078241964 -16.893610686563516 -14.745221226938892 0 0 0
69 9 5 -0.008385 -6.692584474871099 -15.477482905621542 -12.588888934014085 0 0 0
1293 162 5 -0.008385 -5.787453904585895 -14.754072857191742 -15.37053714677451 0 0 0
835 105 3 0.512161 -5.924303804493237 -10.542074687519024 -19.376457926300112 0 0 1
2634 330 2 -0.169515 -1.9908641755408532 -11.132403115020324 -18.508402864935896 0 0 0
3275 410 3 0.512161 -4.221885084466868 -11.337498347447621 -14.871663658799578 0 0 0
40 5 6 0.1559 -2.294627619976554 -9.519536018505828 -12.489969715212384 0 0 0
34 5 2 -0.169515 -1.4917796512528483 -10.025264818623352 -11.924862014199842 0 0 0
1023 128 6 0.19089 -1.9700568916071042 -14.08411642604457 -15.754265281950335 0 0 0
836 105 4 -0.488411 -5.668133645154224 -11.719697002757822 -19.095896170482746 0 0 1
231 29 6 0.19089 -3.037093988989085 -14.082985338344454 -10.884266328353203 0 0 0
225 29 1 -0.38353 -2.027469102673713 -14.481922063090359 -10.738396108940082 0 0 0
2300 288 4 -0.488411 -10.251884617851097 -9.283243542313254 -6.909849216920298 0 0 0
481 61 1 -0.38353 -12.561214749842062 -16.30950208639227 -5.655309265354624 0 0 0
2597 325 5 -0.008385 -10.472348906696343 -6.574794894850376 -3.155985659752595 0 0 0
2299 288 3 0.512161 -11.47426567744072 -9.182066542032201 -6.805609016738442 0 0 0
2600 325 6 0.1559 -10.084588982849777 -9.62050218202542 -2.283137207589519 0 0 0
2596 325 4 -0.488411 -11.92700524173446 -8.040676806770163 -3.4059399076770056 0 0 0
2594 325 2 -0.169515 -9.802492594836623 -8.535409165041042 -2.4108194318219454 0 0 0
2595 325 3 0.512161 -10.832753207562511 -7.643756880444231 -3.0274695351981364 0 0 0
2593 325 1 -0.38353 -8.575962366884223 -8.094493554098536 -2.0053215214476623 0 0 0
2301 288 5 -0.008385 -11.886467238359943 -8.56143912626271 -5.964603140799376 0 0 0
2304 288 6 0.1559 -11.99317004431306 -10.32899544481258 -8.59427850593343 0 0 0
2298 288 2 -0.169515 -12.456442704768005 -9.821795216573037 -7.737046417421535 0 0 0
3328 416 6 0.1559 -11.495639992172503 -10.711889223490612 -3.643341436377458 0 0 0
486 61 6 0.19089 -11.606067100841313 -15.87234026619743 -5.3651254356437725 0 0 0
3523 441 3 0.512161 -7.825074699117532 -12.188678604562314 -0.7035931234590187 0 0 0
3525 441 5 -0.008385 -8.079771617441803 -12.09048936195164 -1.80533917395584 0 0 0
3322 416 2 -0.169515 -11.669087295990375 -11.77839150859764 -3.7165536918906454 0 0 0
482 61 2 -0.169515 -12.743249381032738 -17.045650957215685 -6.754511013538506 0 0 0
2147 269 3 0.512161 -13.133681752389702 -14.150992570441254 -9.113160319224791 0 0 0
2148 269 4 -0.488411 -13.52043424076233 -13.122420178273394 -8.588117093235578 0 0 0
4027 504 3 0.512161 -9.720286693540476 -16.612875908671214 -3.4469987779444224 0 1 0
3323 416 3 0.512161 -11.370355679306904 -12.52504756289484 -2.4958767991277924 0 0 0
3324 416 4 -0.488411 -11.092275624828767 -11.90485780591768 -1.4772157985257977 0 0 0
4028 504 4 -0.488411 -10.272174535979435 -15.560614220078222 -3.2812219108050122 0 1 0
1329 167 1 -0.38353 -9.541423663386674 -14.125230895636864 -6.706918638461984 0 0 0
1335 167 6 0.19089 -9.448344561952927 -15.106549128088812 -7.119921699878493 0 0 0
3325 416 5 -0.008385 -11.568621528576273 -13.641925627598958 -2.558944766332335 0 0 0
3321 416 1 -0.38353 -12.084039662334288 -12.409689976404202 -4.8567701380259365 0 0 0
4026 504 2 -0.169515 -9.76668266940063 -17.706034229755982 -2.457926193534064 0 1 0
485 61 5 -0.008385 -10.627735870915457 -17.006706737558993 -7.369506201829639 0 0 0
4029 504 5 -0.008385 -9.129237727643565 -16.75664371402566 -4.367307595290182 0 1 0
483 61 3 0.512161 -11.614141142558855 -17.396086366197444 -7.6787771970033685 0 0 0
1431 179 6 0.19089 -12.761205160917111 -16.746157103676406 -2.3356527666524336 0 1 0
3721 466 1 -0.38353 -8.159931581174494 -12.529104207662606 -8.969832538887523 0 0 0
3722 466 2 -0.169515 -8.909889534817918 -11.504080528819113 -9.39721260404182 0 0 0
3726 466 6 0.19089 -8.262350503516053 -13.491089909669434 -9.442340402694656 0 0 0
1334 167 6 0.19089 -10.39239602427546 -13.548069557141435 -7.054811877122466 0 0 0
2599 325 6 0.19089 -7.811217669395797 -8.737034761693621 -1.6069046215022738 0 0 0
2317 290 5 -0.008385 -9.632963963984597 -8.47621382548068 -9.691198537763563 0 0 0
2297 288 1 -0.38353 -13.802857447487863 -9.835257405048303 -7.560068965926339 0 0 0
3728 466 6 0.1559 -8.866130263165648 -10.521706968487145 -8.966955861357507 0 0 0
2316 290 4 -0.488411 -10.952538923445573 -6.936723529431767 -9.87126771008554 0 0 0
2598 325 6 0.19089 -8.359299392295311 -7.008425455784451 -1.980841720701381 0 0 0
1330 167 2 -0.169515 -8.633273838105277 -13.696267963027356 -5.834803499456738 0 0 0
1333 167 5 -0.008385 -9.53186604651347 -11.66947059461693 -5.4446637747460755 0 0 0
1331 167 3 0.512161 -8.670310574545644 -12.348962740626767 -5.230014851852115 0 0 0
3326 416 6 0.19089 -12.20137184837706 -13.532036575031608 -4.9056184347780025 0 0 0
4032 504 6 0.1559 -10.40707713822639 -17.557050398108686 -1.563958070341446 0 1 0
487 61 6 0.19089 -13.445111508962793 -16.001079244732164 -5.073587998607817 0 0 0
3327 416 6 0.19089 -12.442023484962396 -11.800661538065583 -5.6723247206846565 0 0 0
3526 441 6 0.19089 -7.968252326350376 -14.564227904963175 -1.9699344270640928 0 0 0
3521 441 1 -0.38353 -7.724108694605359 -14.65409758186261 -0.9015668852732475 0 0 0
2741 343 5 -0.008385 -14.314256191501713 -9.98644575778293 -3.7881408509124483 1 0 0
2230 279 6 0.19089 -13.798306526068556 -6.9889122250278355 -7.242882007232673 0 0 0
2145 269 1 -0.38353 -13.71696315047238 -16.30685963475238 -10.328451930630766 0 0 0
2677 335 5 -0.008385 -7.83096374029826 -9.877819885540847 -6.643979897468627 0 0 0
3522 441 2 -0.169515 -7.602348358331886 -13.539652000384454 -0.17005865565531764 0 0 0
488 61 6 0.1559 -13.742203247514169 -17.488501192954676 -7.033647070567417 0 0 0
1426 179 2 -0.169515 -13.016672348033996 -18.354765848882277 -0.9996678237503254 0 1 0
2315 290 3 0.512161 -10.007229058227107 -7.57752784336877 -10.241082834482356 0 0 0
2302 288 6 0.19089 -14.243543956454445 -9.471409597193992 -6.657405117212393 0 0 0
2149 269 5 -0.008385 -12.018457114492541 -14.364251474772416 -9.15839627938328 0 0 0
2146 269 2 -0.169515 -14.087913431903102 -15.126046059627562 -9.715278036882328 0 0 0
2303 288 6 0.19089 -14.46722370346677 -10.301683289251446 -8.307159011692345 0 0 0
3524 441 4 -0.488411 -7.739668460519977 -11.149136730350829 -0.04117839947888058 0 0 0
3723 466 3 0.512161 -9.929966815913314 -11.690464526806355 -10.486594544700498 0 0 0
893 112 5 -0.008385 -9.515394771262578 -16.70687192808927 -9.744859822710191 0 0 0
1438 180 6 0.19089 -13.960327458260402 -13.11163218483391 -1.3482948099548473 0 0 0
2229 279 5 -0.008385 -14.279792137393605 -6.690140298853487 -4.791173716909508 0 0 0
1332 167 4 -0.488411 -7.8000123242796935 -11.928355889178562 -4.488332512120937 0 0 0
1336 167 6 0.1559 -7.76196592784633 -14.282249972794439 -5.525790743008487 0 0 0
3527 441 6 0.19089 -7.678111997298291 -15.666098668291557 -0.4612582153539613 0 0 0
1432 179 6 0.1559 -12.929375088408019 -17.69449728571621 -0.15015081776498107 0 1 0
2150 269 6 0.19089 -12.704105298788662 -16.574049653041843 -10.520358967265366 0 0 0
3727 466 6 0.19089 -7.521667346909648 -12.392829525675992 -8.183917514307401 0 0 0
4056 507 6 0.1559 -8.90832975562217 -6.710595531153224 -4.686773890177413 0 0 0
4050 507 2 -0.169515 -8.32671839498259 -6.206645939933114 -5.436495828724576 0 0 0
4055 507 6 0.19089 -9.557093682074576 -6.7692101243152205 -7.034435107447134 0 0 0
1433 180 1 -0.38353 -14.495687327931735 -13.954552029709479 -1.8142878701635112 0 0 0
2742 343 6 0.19089 -14.404445630665924 -8.042415476946928 -2.149302223132267 1 0 0
1425 179 1 -0.38353 -12.89272387567819 -17.82759424920457 -2.248594512045713 0 1 0
2225 279 1 -0.38353 -12.967346673363414 -6.285119323154433 -7.161883943244868 0 0 0
1054 132 6 0.19089 -0.06758922428138803 -6.995560699224919 -4.091334941326302 0 0 0
484 61 4 -0.488411 -11.721733827148775 -18.18040778979351 -8.60928280399416 0 0 0
357 45 5 -0.008385 -11.522241957027607 -14.110901671805347 -0.19543996534353525 0 0 0
1470 184 6 0.19089 -12.74116984519174 -9.455466204024477 -10.610466056148866 1 0 0
1430 179 6 0.19089 -12.909365016581145 -18.41154337230203 -3.1501566583204585 0 1 0
3788 474 4 -0.488411 -1.4818161589352101 -18.257056834713424 -6.117312306770401 0 1 0
908 114 4 -0.488411 -3.3824466669845616 -18.097401190234383 -2.8559426342437675 0 1 0
1448 181 6 0.1559 -1.0010039761698941 -6.326610188679835 -6.966637886934738 0 0 0
3046 381 6 0.19089 -0.2102652692863689 -10.112182968543015 -2.5991538463946817 0 0 0
2828 354 4 -0.488411 -7.272137259300043 -16.893471631800967 -8.754982875626517 0 0 0
906 114 2 -0.169515 -5.474345248219159 -17.963024690500003 -1.698152262227353 0 1 0
394 50 2 -0.169515 -6.0775410427988295 -17.98273673824174 -5.530350196925154 0 1 0
398 50 6 0.19089 -4.343628704868706 -18.450475428961575 -6.730582963726455 0 1 0
2997 375 5 -0.008385 -6.436926684516507 -7.050487628358706 -9.673557172414263 0 0 0
1122 141 2 -0.169515 -5.097799610364495 -6.634819274315719 -0.2276120898398304 0 0 0
1975 247 6 0.19089 -0.9882635902069712 -14.237365908519077 -6.56935546908913 0 0 0
1743 218 6 0.19089 -4.995231080118463 -11.075905143953845 -1.0763031431420842 0 0 0
1976 247 6 0.1559 -0.18881462353263956 -12.86142075877319 -8.507587824074767 0 0 0
2679 335 6 0.19089 -5.6225887125495415 -8.563523409905162 -3.9020568135593123 0 0 0
2033 255 1 -0.38353 -3.6996344653586988 -15.130325990324543 -0.5697885952701682 0 0 0
2831 354 6 0.19089 -3.7547175462217783 -14.261419230930962 -7.592235493324658 0 0 0
100 13 4 -0.488411 -2.530338847719758 -7.117944516572727 -3.269611241913143 0 0 0
2817 353 1 -0.38353 -4.324293145067781 -11.22832096586551 -7.9782140334464025 0 0 0
2823 353 6 0.19089 -4.097954664501836 -12.072733058308504 -7.336068812947731 0 0 0
2678 335 6 0.19089 -7.101733538677387 -9.581919983641667 -4.278756221207249 0 0 0
1744 218 6 0.1559 -2.9968677227590756 -10.23569760085266 -2.1734204478773513 0 0 0
2829 354 5 -0.008385 -5.424969090819918 -17.24224802520487 -9.355851763522665 0 0 0
2826 354 2 -0.169515 -5.509038062714616 -15.347091249667896 -8.091091092738457 0 0 0
1126 141 6 0.19089 -4.777617457445711 -7.7723549004433625 -2.0317849838125888 0 0 0
1492 187 4 -0.488411 -3.1663236810778237 -18.240531499735315 -9.951544743261325 0 0 0
3790 474 6 0.19089 -0.41425502802788117 -15.435498358892534 -3.5055150862260405 0 1 0
1972 247 4 -0.488411 -0.6501714194090731 -10.313287252719615 -8.805587577482234 0 0 0
1442 181 2 -0.169515 -1.0169595091290997 -6.751780296067201 -7.9885121909181525 0 0 0
396 50 4 -0.488411 -6.34345556617901 -16.002147213697032 -4.305045909806193 0 1 0
3787 474 3 0.512161 -1.2817875008906707 -17.380849618413784 -5.280693408197575 0 1 0
230 29 6 0.19089 -1.7088538476105075 -14.788605832777629 -9.719678065719856 0 0 0
1445 181 5 -0.008385 -2.2210309784274678 -7.968597077407971 -9.462350503517973 0 0 0
1974 247 6 0.19089 -1.8911982133645484 -12.685020851014304 -5.91951666605873 0 0 0
1055 132 6 0.19089 -0.32364218537409606 -8.683698403192507 -4.754718547100104 0 0 0
3655 457 6 0.19089 -1.3232948022640496 -8.15148275477181 -0.9909274419533389 0 0 0
911 114 6 0.19089 -7.24683767314364 -18.26475519620154 -0.4543976347865417 0 1 0
2035 255 3 0.512161 -3.8000797616766278 -14.358892107802514 -2.9475526160658703 0 0 0
2478 310 6 0.19089 -1.1830352659108705 -18.092490509040477 -1.2192856987050256 0 0 0
2034 255 2 -0.169515 -3.121177541872079 -15.009774341194149 -1.7920983184257047 0 0 0
1741 218 5 -0.008385 -4.434799228466634 -11.133566744086718 -4.831265814363817 0 0 0
912 114 6 0.1559 -5.704331450930386 -16.943537178970715 -1.9559828384214057 0 1 0
2819 353 3 0.512161 -4.997571930355912 -10.285736633741033 -10.143600312985885 0 0 0
2037 255 5 -0.008385 -4.813527120452317 -14.00786578522926 -2.8087258057387814 0 0 0
2821 353 5 -0.008385 -4.740881242551421 -9.29567628048785 -9.710180304388057 0 0 0
2827 354 3 0.512161 -6.11060603208216 -16.539860897114586 -8.833887313247015 0 0 0
1971 247 3 0.512161 -1.1323804347141397 -11.001893215313647 -7.922798278408932 0 0 0
3045 381 5 -0.008385 -0.7057867110468319 -12.573306011315866 -2.4813887204414584 0 0 0
1491 187 3 0.512161 -1.9761117990817691 -18.25690954745264 -9.778001879939982 0 0 0
1738 218 2 -0.169515 -3.810087350154797 -10.67785974324424 -2.7793255984821172 0 0 0
397 50 5 -0.008385 -4.570382565488913 -16.325731282651866 -5.274939289219006 0 1 0
2038 255 6 0.19089 -4.673006264497522 -14.740558118448444 -0.27808608309241123 0 0 0
99 13 3 0.512161 -2.973811151808796 -6.746288068605759 -4.3552022871786455 0 0 0
2676 335 4 -0.488411 -6.995367439502012 -8.879279223428956 -8.18549929900645 0 0 0
1973 247 5 -0.008385 -1.703981550457895 -10.508199546864992 -7.115913799051466 0 0 0
2473 310 1 -0.38353 -1.3422971960258678 -17.914630910784716 -0.16583814288804888 0 0 0
1493 187 5 -0.008385 -1.5404971290532448 -18.16661523793737 -8.767979993258072 0 0 0
2825 354 1 -0.38353 -4.200141529477035 -15.12299503506874 -8.096665892134293 0 0 0
1742 218 6 0.19089 -5.6890775172979335 -11.598020447398092 -2.7241316086067826 0 0 0
1127 141 6 0.19089 -5.067664144901123 -8.718848704079019 -0.4793610866258611 0 0 0
2675 335 3 0.512161 -7.125821183667929 -9.059838601639632 -6.9909406990958285 0 0 0
1740 218 4 -0.488411 -2.556718108867475 -10.291829523904012 -4.764721956484038 0 0 0
1121 141 1 -0.38353 -5.008082314944442 -7.7628966409372016 -0.9403054922865692 0 0 0
2830 354 6 0.19089 -3.560483933426065 -15.799377292580132 -8.640136266527998 0 0 0
2822 353 6 0.19089 -4.21458098180169 -10.245374229389002 -7.550788149634451 0 0 0
1444 181 4 -0.488411 -3.163688433267085 -7.571187427210425 -7.725539859159955 0 0 0
1443 181 3 0.512161 -2.2114658789425494 -7.4931050005959055 -8.440612353396963 0 0 0
2824 353 6 0.1559 -4.760492171453738 -12.38385612986663 -9.70563826654178 0 0 0
2036 255 4 -0.488411 -3.2801299246193256 -14.321897658050045 -4.069087245439654 0 0 0
1739 218 3 0.512161 -3.5847875002803438 -10.70796559831559 -4.207576232195375 0 0 0
2673 335 1 -0.38353 -6.334921016264891 -8.895638826830162 -4.6579986768268675 0 0 0
2680 335 6 0.1559 -5.409715683525935 -7.871487860170685 -6.3004953974839655 0 0 0
2674 335 2 -0.169515 -6.139108146743608 -8.605545827355174 -5.9479962550823515 0 0 0
2832 354 6 0.1559 -6.233795236033471 -14.732786448335936 -7.567699849351891 0 0 0
2818 353 2 -0.169515 -4.698787213058699 -11.411560940382097 -9.261882210005892 0 0 0
3789 474 5 -0.008385 -2.0793440947530737 -16.787447966425745 -4.833006597703193 0 1 0
101 13 5 -0.008385 -3.6208587627954643 -7.44059865962118 -4.921674219430386 0 0 0
1970 247 2 -0.169515 -0.8395033139392947 -12.418430977181062 -7.727706332735536 0 0 0
395 50 3 0.512161 -5.596939050502765 -16.664285689776435 -4.968077195022541 0 1 0
2040 255 6 0.1559 -2.1161631100210396 -15.42094862449224 -1.9906708340465578 0 0 0
1969 247 1 -0.38353 -1.233215901678184 -13.11429289401072 -6.6459334164598705 0 0 0
1737 218 1 -0.38353 -4.889086260085794 -11.126074326238196 -2.155704853506336 0 0 0
400 50 6 0.1559 -7.086514433540944 -18.308062734595897 -5.239429785495695 0 1 0
2995 375 3 0.512161 -5.662462254362689 -6.2464047129109925 -9.517552519432702 0 0 0
2374 297 6 0.19089 -12.3297821338547 -6.236159045735912 -1.1837678523212602 1 0 0
4049 507 1 -0.38353 -8.708855217997398 -6.1785294728554145 -6.750032803856934 0 0 0
28 4 4 -0.488411 -1.8814502876467127 -12.09837018753068 -0.022904806915406084 0 0 0
2151 269 6 0.19089 -14.476536145321193 -17.005794786909366 -10.626394916336453 0 0 0
4087 511 6 0.19089 -11.116398638346897 -10.235710368703414 4.959933307738684 0 0 0
1634 205 2 -0.169515 -12.311586256319101 -15.214522022199471 4.909440513866919 0 0 0