variable        mytemp index 200.0
variable	dt index 1.0
variable        eta equal 0.1
variable 	lbda equal 0.75

variable scale_lj equal ${eta}+v_lbda*(1.0-${eta})
variable scale_lj equal 0.1+v_lbda*(1.0-${eta})
variable scale_lj equal 0.1+v_lbda*(1.0-0.1)
variable scale_coul equal (${eta}+v_lbda*(1.0-${eta}))^2
variable scale_coul equal (0.1+v_lbda*(1.0-${eta}))^2
variable scale_coul equal (0.1+v_lbda*(1.0-0.1))^2

units           real
special_bonds   lj 0.0 0.0 0.5 coul 0.0 0.0 0.8333
#neighbor        2.0 bin
#neigh_modify    delay 0 every 1 check yes page 1000000 one 20000
atom_style      full
pair_style	 hybrid/overlay lj/cut 12.0 coul/long 12.0

bond_style	 harmonic
dihedral_style	 charmm
angle_style	 harmonic
improper_style	 cvff

read_restart    restart.ar.750000
Reading restart file ...
  restart file = 29 Sep 2021, LAMMPS = 29 Sep 2021
  restoring atom style full from restart
  triclinic box = (0.0000000 0.0000000 0.0000000) to (30.167756 38.212491 44.246042) with tilt (0.0000000 0.0000000 0.0000000)
  2 by 3 by 4 MPI processor grid
  restoring pair style hybrid/overlay from restart
  restoring bond style harmonic from restart
  restoring angle style harmonic from restart
  restoring dihedral style charmm from restart
  restoring improper style cvff from restart
  4096 atoms
  3584 bonds
  4608 angles
  4096 dihedrals
  1536 impropers
Finding 1-2 1-3 1-4 neighbors ...
  special bond factors lj:    0        0        0.5     
  special bond factors coul:  0        0        0.8333  
     3 = max # of 1-2 neighbors
     4 = max # of 1-3 neighbors
     6 = max # of 1-4 neighbors
     7 = max # of special neighbors
  special bonds CPU = 0.602 seconds
  read_restart CPU = 0.949 seconds

kspace_style    pppm 1E-4
kspace_modify   mesh 32 32 32
pair_modify     mix arithmetic tail yes

timestep        ${dt}
timestep        1.0

# para obter essas coeficientes usar o comando "write_coeff file.coeff" em simulação nvt ou npt sem hybrid style
pair_coeff      * * coul/long

pair_coeff 	1 1 lj/cut 0.086 3.39967 12
pair_coeff 	1 2 lj/cut 0.086 3.39967 12
pair_coeff 	1 3 lj/cut 0.086 3.39967 12
pair_coeff 	1 4 lj/cut 0.134387 3.17979 12
pair_coeff 	1 5 lj/cut 0.0359166 2.95511 12
pair_coeff 	1 6 lj/cut 0.0359166 2.99965 12
pair_coeff 	2 2 lj/cut 0.086 3.39967 12
pair_coeff 	2 3 lj/cut 0.086 3.39967 12
pair_coeff 	2 4 lj/cut 0.134387 3.17979 12
pair_coeff 	2 5 lj/cut 0.0359166 2.95511 12
pair_coeff 	2 6 lj/cut 0.0359166 2.99965 12
pair_coeff 	3 3 lj/cut 0.086 3.39967 12
pair_coeff 	3 4 lj/cut 0.134387 3.17979 12
pair_coeff 	3 5 lj/cut 0.0359166 2.95511 12
pair_coeff 	3 6 lj/cut 0.0359166 2.99965 12
pair_coeff 	4 4 lj/cut 0.21 2.95992 12
pair_coeff 	4 5 lj/cut 0.0561249 2.73523 12
pair_coeff 	4 6 lj/cut 0.0561249 2.77978 12
pair_coeff 	5 5 lj/cut 0.015 2.51055 12
pair_coeff 	5 6 lj/cut 0.015 2.55509 12
pair_coeff 	6 6 lj/cut 0.015 2.59964 12

velocity        all zero linear units box

group   	mobile type <> 1 6
4096 atoms in group mobile

fix            1a all recenter INIT INIT INIT units box

fix            1 mobile nvt temp ${mytemp} ${mytemp} $(100.0*dt)
fix            1 mobile nvt temp 200.0 ${mytemp} $(100.0*dt)
fix            1 mobile nvt temp 200.0 200.0 $(100.0*dt)
fix            1 mobile nvt temp 200.0 200.0 100
Resetting global fix info from restart file:
  fix style: nvt, fix ID: 1
dump           1 all custom 10000 ${NAME}.lammpstrj id type x y z
dump           1 all custom 10000 ar.lammpstrj id type x y z

fix            2 mobile adapt 1 pair lj/cut epsilon 1*6 1*6 v_scale_lj scale yes
compute        lj all pair lj/cut

fix            3 mobile adapt 1 pair coul/long scale 1*6 1*6 v_scale_coul kspace v_scale_coul scale yes
compute        coul all pair coul/long


thermo_style    custom step vol temp press ke pe etotal enthalpy evdwl etail ecoul elong v_lbda v_scale_lj v_scale_coul c_lj c_coul
thermo          200

run             2000000
PPPM initialization ...
  using 12-bit tables for long-range coulomb (../kspace.cpp:340)
  G vector (1/distance) = 0.2607326
  grid = 32 32 32
  stencil order = 5
  estimated absolute RMS force accuracy = 0.00041335133
  estimated relative force accuracy = 1.2447952e-06
  using double precision KISS FFT
  3d grid and FFT values/proc = 6210 2048
All restart file global fix info was re-assigned
WARNING: Fix recenter should come after all other integration fixes (../fix_recenter.cpp:133)
Neighbor list info ...
  update every 1 steps, delay 10 steps, check yes
  max neighbors/atom: 2000, page size: 100000
  master list distance cutoff = 14
  ghost atom cutoff = 14
  binsize = 7, bins = 5 6 7
  2 neighbor lists, perpetual/occasional/extra = 2 0 0
  (1) pair lj/cut, perpetual, skip from (2)
      attributes: half, newton on
      pair build: skip
      stencil: none
      bin: none
  (2) pair coul/long, perpetual
      attributes: half, newton on
      pair build: half/bin/newton/tri
      stencil: half/bin/3d/tri
      bin: standard
Per MPI rank memory allocation (min/avg/max) = 12.12 | 12.16 | 12.22 Mbytes
Step Volume Temp Press KinEng PotEng TotEng Enthalpy E_vdwl E_tail E_coul E_long v_lbda v_scale_lj v_scale_coul c_lj c_coul 
  750000    51006.178     198.5316    2617.0756    2423.3595    4020.6608    6444.0203    8390.7917   -1919.8599    -59.02528    15537.677   -11583.901         0.75        0.775     0.600625   -1860.8346    15537.677 
  750200    51006.178    201.72397    1544.8605    2462.3269    3960.4707    6422.7976    7571.9773   -1919.0328    -59.02528    15508.176   -11590.227         0.75        0.775     0.600625   -1860.0075    15508.176 
  750400    51006.178    200.19052    744.57153     2443.609    3958.2515    6401.8606    6955.7271   -1936.3501    -59.02528    15515.051   -11589.527         0.75        0.775     0.600625   -1877.3248    15515.051 
  750600    51006.178    195.31906    1377.8897    2384.1459    3925.0859    6309.2318    7334.2065   -1926.7557    -59.02528    15515.362   -11591.283         0.75        0.775     0.600625   -1867.7304    15515.362 
  750800    51006.178    197.11344    1856.9077    2406.0489    3916.4578    6322.5067    7703.8098   -1922.5505    -59.02528    15510.248   -11591.013         0.75        0.775     0.600625   -1863.5252    15510.248 
  751000    51006.178    200.27039    1631.4841    2444.5839    3966.2274    6410.8113    7624.4279   -1936.0193    -59.02528    15540.341   -11589.708         0.75        0.775     0.600625    -1876.994    15540.341 
  751200    51006.178    196.62586    2466.2372    2400.0973    4029.4587     6429.556    8264.1227   -1921.8144    -59.02528    15537.354   -11586.826         0.75        0.775     0.600625   -1862.7891    15537.354 
  751400    51006.178    195.81475    1770.6027    2390.1966    3938.6523    6328.8488     7645.952   -1928.3667    -59.02528    15518.586   -11585.926         0.75        0.775     0.600625   -1869.3414    15518.586 
  751600    51006.178    198.40331    493.88126    2421.7936    3994.1128    6415.9064    6783.2912   -1906.9098    -59.02528     15520.69   -11587.623         0.75        0.775     0.600625   -1847.8845     15520.69 
  751800    51006.178    200.51765   -420.53672     2447.602    3966.0709    6413.6729    6100.8471   -1901.9046    -59.02528     15511.41   -11589.758         0.75        0.775     0.600625   -1842.8793     15511.41 
  752000    51006.178    197.45775    1193.7088    2410.2517     3937.518    6347.7697    7235.7372   -1922.3554    -59.02528    15528.916   -11586.617         0.75        0.775     0.600625   -1863.3302    15528.916 
  752200    51006.178    199.35949    2752.2938    2433.4651    3908.8368    6342.3019    8389.6584   -1923.0751    -59.02528    15524.825   -11585.983         0.75        0.775     0.600625   -1864.0498    15524.825 
  752400    51006.178    199.42618    3248.4166    2434.2791    3985.2998    6419.5789    8835.9876   -1901.0964    -59.02528    15527.287   -11588.574         0.75        0.775     0.600625   -1842.0711    15527.287 
  752600    51006.178    197.34296    2251.8175    2408.8505    3930.7532    6339.6038    8014.6695   -1923.1673    -59.02528    15523.059   -11588.242         0.75        0.775     0.600625    -1864.142    15523.059 
  752800    51006.178     202.4298    1068.8655    2470.9426    3911.6025    6382.5451    7177.6451   -1925.2844    -59.02528    15519.673    -11591.14         0.75        0.775     0.600625   -1866.2591    15519.673 
  753000    51006.178    204.52294     365.7582    2496.4923    3929.9988    6426.4911    6698.5687    -1949.933    -59.02528    15525.086    -11586.41         0.75        0.775     0.600625   -1890.9077    15525.086 
  753200    51006.178    196.61038    597.31346    2399.9083    3951.1976    6351.1059    6795.4311   -1923.2228    -59.02528    15507.627   -11589.851         0.75        0.775     0.600625   -1864.1975    15507.627 
  753400    51006.178    205.27177    879.48127    2505.6329    3948.7032    6454.3361    7108.5582   -1908.2859    -59.02528    15497.688   -11589.808         0.75        0.775     0.600625   -1849.2606    15497.688 
  753600    51006.178    201.41703    895.40745    2458.5803    3925.3582    6383.9385    7050.0077    -1937.176    -59.02528    15509.525   -11591.364         0.75        0.775     0.600625   -1878.1507    15509.525 
  753800    51006.178    202.02966    1813.4623    2466.0583     3918.055    6384.1133    7733.0985   -1929.5378    -59.02528    15518.082   -11592.134         0.75        0.775     0.600625   -1870.5125    15518.082 
  754000    51006.178    204.86556    1725.0736    2500.6745    3934.7568    6435.4313    7718.6666   -1935.0049    -59.02528     15522.68   -11590.867         0.75        0.775     0.600625   -1875.9796     15522.68 
  754200    51006.178    199.60106    778.04117    2436.4138    3888.4646    6324.8784    6903.6421   -1943.3881    -59.02528    15508.652   -11590.008         0.75        0.775     0.600625   -1884.3628    15508.652 
  754400    51006.178    196.94673    1272.0741    2404.0139    3964.0347    6368.0486    7314.3099   -1955.4383    -59.02528     15513.63   -11590.938         0.75        0.775     0.600625    -1896.413     15513.63 
  754600    51006.178    200.37352    1430.5274    2445.8427    3950.5011    6396.3438    7460.4742   -1945.9885    -59.02528    15510.034   -11590.436         0.75        0.775     0.600625   -1886.9632    15510.034 
  754800    51006.178    200.64826    1255.6593    2449.1964    3918.7702    6367.9666    7302.0174   -1929.8963    -59.02528    15513.236   -11589.768         0.75        0.775     0.600625    -1870.871    15513.236 
  755000    51006.178    198.14956    720.29435    2418.6962    3908.3869    6327.0832    6862.8905   -1945.6773    -59.02528    15519.822   -11590.436         0.75        0.775     0.600625    -1886.652    15519.822 
  755200    51006.178    200.70231    945.02461    2449.8561    3984.7199     6434.576    7137.5541   -1917.8819    -59.02528    15516.815   -11587.785         0.75        0.775     0.600625   -1858.8566    15516.815 
  755400    51006.178    199.68782    1188.7473    2437.4728    3957.0549    6394.5277    7278.8044   -1934.5498    -59.02528    15515.789   -11586.698         0.75        0.775     0.600625   -1875.5245    15515.789 
  755600    51006.178    197.58757    1620.5626    2411.8363    3909.4705    6321.3067    7526.7991    -1944.876    -59.02528     15511.22    -11588.35         0.75        0.775     0.600625   -1885.8508     15511.22 
  755800    51006.178    200.32279    1088.8424    2445.2236    3963.5438    6408.7674    7218.7276   -1958.9936    -59.02528    15512.003   -11587.474         0.75        0.775     0.600625   -1899.9684    15512.003 
  756000    51006.178    196.86466    1110.5974    2403.0121    3951.3623    6354.3744    7180.5176   -1934.7897    -59.02528     15524.45   -11588.577         0.75        0.775     0.600625   -1875.7644     15524.45 
  756200    51006.178      200.462    513.85534    2446.9228    3875.6888    6322.6115    6704.8545   -1942.5568    -59.02528    15486.532   -11590.447         0.75        0.775     0.600625   -1883.5315    15486.532 
  756400    51006.178    203.52462    287.79771    2484.3065    3910.6133    6394.9198    6609.0046   -1933.5085    -59.02528     15507.91   -11590.167         0.75        0.775     0.600625   -1874.4832     15507.91 
  756600    51006.178    201.80485    944.36137    2463.3142     3982.136    6445.4503     7147.935   -1919.0679    -59.02528    15513.239   -11586.051         0.75        0.775     0.600625   -1860.0426    15513.239 
  756800    51006.178    202.15849    1243.9242    2467.6308     3973.312    6440.9428    7366.2642   -1932.4299    -59.02528    15508.492   -11587.757         0.75        0.775     0.600625   -1873.4046    15508.492 
  757000    51006.178    199.24439    1212.7825    2432.0601    3944.7918    6376.8519    7279.0078   -1953.4861    -59.02528    15522.395   -11589.175         0.75        0.775     0.600625   -1894.4608    15522.395 
  757200    51006.178     204.4336    1342.7799    2495.4018    3923.6626    6419.0644    7417.9219   -1943.2815    -59.02528    15513.275   -11587.755         0.75        0.775     0.600625   -1884.2562    15513.275 
  757400    51006.178    200.15987    1143.9882    2443.2349    3965.2436    6408.4785    7259.4602   -1935.2509    -59.02528     15519.39   -11586.308         0.75        0.775     0.600625   -1876.2256     15519.39 
  757600    51006.178    197.05009    1555.4759    2405.2756    3956.7786    6362.0543    7519.1305   -1930.3429    -59.02528    15513.505   -11584.422         0.75        0.775     0.600625   -1871.3176    15513.505 
  757800    51006.178    202.25867    1316.2685    2468.8538    3975.8387    6444.6925    7423.8288   -1938.7912    -59.02528    15518.363   -11587.425         0.75        0.775     0.600625    -1879.766    15518.363 
  758000    51006.178    195.79274    1334.7255    2389.9278    3955.6875    6345.6153    7338.4813   -1929.2736    -59.02528    15517.661   -11585.031         0.75        0.775     0.600625   -1870.2484    15517.661 
  758200    51006.178    200.38857    957.08792    2446.0265    3921.3263    6367.3528    7079.3045   -1935.1857    -59.02528     15517.88   -11586.524         0.75        0.775     0.600625   -1876.1604     15517.88 
  758400    51006.178    202.98659    1155.6106     2477.739    3947.0685    6424.8076    7284.4348   -1939.4824    -59.02528     15505.32   -11586.696         0.75        0.775     0.600625   -1880.4571     15505.32 
  758600    51006.178    194.72543    1080.5139    2376.8998    3947.2064    6324.1063    7127.8711   -1907.9522    -59.02528    15497.575   -11585.192         0.75        0.775     0.600625   -1848.9269    15497.575 
  758800    51006.178    199.99269    709.73945    2441.1942    3973.6515    6414.8457    6942.8015     -1929.59    -59.02528    15505.097   -11589.245         0.75        0.775     0.600625   -1870.5647    15505.097 
  759000    51006.178    201.13308    1965.0241    2455.1143    3959.0262    6414.1405    7875.8684   -1922.1393    -59.02528    15499.704   -11588.879         0.75        0.775     0.600625    -1863.114    15499.704 
  759200    51006.178    198.04147    1802.7401    2417.3769    3924.0175    6341.3943    7682.4036   -1909.1509    -59.02528    15511.918   -11588.311         0.75        0.775     0.600625   -1850.1256    15511.918 
  759400    51006.178    205.49313     621.6321    2508.3349    3942.6641    6450.9991    6913.4143   -1941.4292    -59.02528    15504.404   -11589.005         0.75        0.775     0.600625    -1882.404    15504.404 
  759600    51006.178    198.92797    500.31267    2428.1978    3900.8363    6329.0341    6701.2031   -1932.7374    -59.02528    15510.593   -11587.173         0.75        0.775     0.600625   -1873.7121    15510.593 
  759800    51006.178    200.44039    1137.1172     2446.659    3925.9784    6372.6374     7218.508   -1939.0232    -59.02528    15502.361   -11589.076         0.75        0.775     0.600625   -1879.9979    15502.361 
  760000    51006.178    202.50273    921.57037    2471.8328    3953.3269    6425.1597    7110.6908   -1945.5054    -59.02528    15535.595    -11585.73         0.75        0.775     0.600625   -1886.4801    15535.595 
  760200    51006.178    199.67521    1178.9523    2437.3189    3993.2382    6430.5571    7307.5476   -1905.8935    -59.02528    15511.792   -11586.375         0.75        0.775     0.600625   -1846.8682    15511.792 
  760400    51006.178    197.36526    878.76133    2409.1227    3938.5046    6347.6273    7001.3139   -1940.9106    -59.02528    15528.218   -11588.963         0.75        0.775     0.600625   -1881.8853    15528.218 
  760600    51006.178    196.72375    1860.1706    2401.2921     4016.054    6417.3462    7801.0765   -1927.0331    -59.02528     15525.86   -11589.767         0.75        0.775     0.600625   -1868.0078     15525.86 
  760800    51006.178    202.71454    3034.9198    2474.4182     3959.321    6433.7392    8691.3335   -1931.0021    -59.02528    15542.478   -11586.435         0.75        0.775     0.600625   -1871.9769    15542.478 
  761000    51006.178    200.68614    2006.0909    2449.6588    3908.2339    6357.8927    7850.1691   -1953.8254    -59.02528    15522.721   -11585.877         0.75        0.775     0.600625   -1894.8001    15522.721 
  761200    51006.178    194.07095    277.55169     2368.911    4002.5626    6371.4736    6577.9368   -1939.5338    -59.02528    15516.444    -11588.94         0.75        0.775     0.600625   -1880.5085    15516.444 
  761400    51006.178    198.87418   -177.96488    2427.5412    3998.0981    6425.6393    6293.2561   -1951.1327    -59.02528     15528.04   -11586.969         0.75        0.775     0.600625   -1892.1075     15528.04 
  761600    51006.178    200.25665    1172.9326    2444.4162    3952.8367    6397.2529    7269.7655   -1948.2505    -59.02528    15535.383   -11584.957         0.75        0.775     0.600625   -1889.2252    15535.383 
  761800    51006.178    199.09524    1848.9672    2430.2395    3912.4251    6342.6646     7718.061    -1942.713    -59.02528    15504.569   -11589.372         0.75        0.775     0.600625   -1883.6877    15504.569 
  762000    51006.178    199.51912    1160.2693    2435.4136    3980.4276    6415.8412     7278.934    -1937.127    -59.02528    15510.899   -11587.794         0.75        0.775     0.600625   -1878.1017    15510.899 
  762200    51006.178     197.3431    839.09676    2408.8522     3914.406    6323.2582    6947.4394   -1932.5134    -59.02528    15500.729   -11587.288         0.75        0.775     0.600625   -1873.4881    15500.729 
  762400    51006.178    199.46185    1438.9319    2434.7146    3949.6585     6384.373    7454.7553   -1945.9486    -59.02528    15502.887   -11587.941         0.75        0.775     0.600625   -1886.9233    15502.887 
  762600    51006.178    200.10339     1771.083    2442.5454    3944.2332    6386.7786     7704.239   -1954.0499    -59.02528    15507.242   -11588.317         0.75        0.775     0.600625   -1895.0246    15507.242 
  762800    51006.178    202.06151    1861.6943    2466.4471    3893.6321    6360.0791    7744.9428    -1932.205    -59.02528    15520.307   -11590.442         0.75        0.775     0.600625   -1873.1797    15520.307 
  763000    51006.178     200.3271    1383.0779    2445.2761    3963.2793    6408.5554    7437.3894   -1922.7164    -59.02528    15506.614   -11589.734         0.75        0.775     0.600625   -1863.6912    15506.614 
  763200    51006.178    196.53152    581.04515    2398.9457    3994.3168    6393.2625    6825.4862   -1950.5802    -59.02528    15506.294   -11587.536         0.75        0.775     0.600625    -1891.555    15506.294 
  763400    51006.178     199.0032    989.74226     2429.116    3955.9887    6385.1048    7121.3471   -1926.5257    -59.02528    15513.192   -11586.671         0.75        0.775     0.600625   -1867.5004    15513.192 
  763600    51006.178    204.26527    1572.0967    2493.3471    3969.4105    6462.7576    7632.1976    -1940.828    -59.02528    15510.155    -11587.37         0.75        0.775     0.600625   -1881.8027    15510.155 
  763800    51006.178    201.69612    1486.2626     2461.987    3882.0298    6344.0168    7449.6071    -1941.796    -59.02528    15506.381   -11588.273         0.75        0.775     0.600625   -1882.7707    15506.381 
  764000    51006.178    199.93298    1023.0231    2440.4654    3976.0058    6416.4712    7177.4702   -1901.7575    -59.02528    15501.861   -11589.531         0.75        0.775     0.600625   -1842.7322    15501.861 
  764200    51006.178    202.45853    124.02325    2471.2933    3949.0034    6420.2967    6512.5542   -1916.6601    -59.02528    15504.683   -11592.397         0.75        0.775     0.600625   -1857.6348    15504.683 
  764400    51006.178    201.35447    894.74199    2457.8167     3923.742    6381.5587    7047.1329    -1948.153    -59.02528    15524.127   -11590.444         0.75        0.775     0.600625   -1889.1278    15524.127 
  764600    51006.178     202.9742    1317.8729    2477.5877    3922.0855    6399.6732     7380.003   -1948.1139    -59.02528    15515.536    -11588.71         0.75        0.775     0.600625   -1889.0886    15515.536 
  764800    51006.178    196.03668     984.0273    2392.9054    3918.6442    6311.5497    7043.5408   -1929.9093    -59.02528    15487.949   -11590.163         0.75        0.775     0.600625    -1870.884    15487.949 
  765000    51006.178    198.88817    786.82847     2427.712     3955.917     6383.629    6968.9293   -1936.2833    -59.02528    15512.144   -11590.745         0.75        0.775     0.600625    -1877.258    15512.144 
  765200    51006.178    200.91548    617.71429    2452.4582     3952.806    6405.2642     6864.765   -1946.4195    -59.02528    15519.965   -11586.134         0.75        0.775     0.600625   -1887.3942    15519.965 
  765400    51006.178    194.28176    1619.4805    2371.4842     3939.099    6310.5832    7515.2707   -1919.4129    -59.02528     15526.62   -11586.214         0.75        0.775     0.600625   -1860.3877     15526.62 
  765600    51006.178    199.76243     1275.787    2438.3835    3988.5179    6426.9014    7375.9247   -1934.6086    -59.02528    15502.214   -11587.218         0.75        0.775     0.600625   -1875.5833    15502.214 
  765800    51006.178    196.23875    1337.9413     2395.372    3973.3546    6368.7266    7363.9848    -1928.368    -59.02528    15524.931   -11587.038         0.75        0.775     0.600625   -1869.3427    15524.931 
  766000    51006.178     201.4694    722.84879    2459.2196    3953.2674     6412.487    6950.1946    -1933.144    -59.02528    15506.437   -11587.204         0.75        0.775     0.600625   -1874.1187    15506.437 
  766200    51006.178    204.06586    923.09916     2490.913    3948.2241    6439.1371    7125.8054   -1931.1328    -59.02528     15519.02   -11586.264         0.75        0.775     0.600625   -1872.1075     15519.02 
  766400    51006.178    202.06966    1423.9657    2466.5465    3901.7078    6368.2543    7427.5037   -1915.5212    -59.02528    15500.343   -11590.424         0.75        0.775     0.600625   -1856.4959    15500.343 
  766600    51006.178    201.90194    654.15316    2464.4993    3915.4206    6379.9199    6866.5267   -1924.3314    -59.02528    15519.835   -11588.321         0.75        0.775     0.600625   -1865.3061    15519.835 
  766800    51006.178    203.40622    438.34221    2482.8611    3999.1336    6481.9948    6808.0656   -1918.2873    -59.02528    15529.078   -11586.196         0.75        0.775     0.600625   -1859.2621    15529.078 
  767000    51006.178    197.91453      1198.33    2415.8273    3960.9965    6376.8238    7268.2289   -1925.0046    -59.02528    15533.413   -11589.908         0.75        0.775     0.600625   -1865.9793    15533.413 
  767200    51006.178    203.58022    1826.6274    2484.9851    3925.1639     6410.149    7768.9274    -1923.664    -59.02528    15505.653   -11591.943         0.75        0.775     0.600625   -1864.6387    15505.653 
  767400    51006.178    197.98794    830.81976    2416.7234    3934.3879    6351.1114    6969.1356   -1911.1748    -59.02528    15516.141   -11590.307         0.75        0.775     0.600625   -1852.1495    15516.141 
  767600    51006.178    196.92516   -281.85346    2403.7506    3928.7513    6332.5019    6122.8388   -1929.9587    -59.02528    15500.233   -11594.131         0.75        0.775     0.600625   -1870.9335    15500.233 
  767800    51006.178    202.29742    221.70153    2469.3267    3938.1528    6407.4795    6572.3972   -1926.0439    -59.02528    15517.596   -11590.803         0.75        0.775     0.600625   -1867.0187    15517.596 
  768000    51006.178    200.65233    1119.7056     2449.246    3891.3192    6340.5652    7173.4837   -1938.9423    -59.02528    15508.936   -11592.531         0.75        0.775     0.600625   -1879.9171    15508.936 
  768200    51006.178    204.16782    1805.8639    2492.1576    3959.1011    6451.2587    7794.5917   -1921.6769    -59.02528    15512.968   -11590.964         0.75        0.775     0.600625   -1862.6516    15512.968 
  768400    51006.178    199.89239    1171.9391    2439.9699     3930.499     6370.469    7242.2426   -1935.5631    -59.02528    15498.916   -11591.876         0.75        0.775     0.600625   -1876.5378    15498.916 
  768600    51006.178    200.22812    1201.6149     2444.068     3924.649     6368.717    7262.5656   -1928.7737    -59.02528     15508.35   -11591.128         0.75        0.775     0.600625   -1869.7484     15508.35 
  768800    51006.178    202.86446    1536.1488    2476.2482    3980.7452    6456.9933    7599.6926    -1921.942    -59.02528    15502.635   -11586.242         0.75        0.775     0.600625   -1862.9167    15502.635 
  769000    51006.178    197.70313    2370.8775    2413.2469    3950.5025    6363.7494    8127.3807   -1905.7836    -59.02528    15516.942   -11588.609         0.75        0.775     0.600625   -1846.7583    15516.942 
  769200    51006.178    200.59188    2116.3713    2448.5082    3985.5872    6434.0953    8008.4064   -1911.5012    -59.02528    15510.426   -11588.172         0.75        0.775     0.600625    -1852.476    15510.426 
  769400    51006.178    200.74965    1342.2116     2450.434     3925.789     6376.223    7374.6577   -1920.7934    -59.02528    15523.502   -11586.909         0.75        0.775     0.600625   -1861.7681    15523.502 
  769600    51006.178    198.32405    518.87264    2420.8261    3926.7304    6347.5565    6733.5317   -1920.8137    -59.02528     15504.43   -11589.687         0.75        0.775     0.600625   -1861.7884     15504.43 
  769800    51006.178    201.76959     1127.153    2462.8838    3967.0156    6429.8994    7268.3579   -1904.3692    -59.02528    15520.964   -11588.325         0.75        0.775     0.600625   -1845.3439    15520.964 
  770000    51006.178    201.75001     1648.912    2462.6447    3917.3571    6380.0018    7606.5826   -1928.0239    -59.02528    15528.668   -11586.791         0.75        0.775     0.600625   -1868.9986    15528.668 
  770200    51006.178    202.96267    1500.5998     2477.447    3905.6691    6383.1161    7499.3714   -1938.0857    -59.02528    15514.031   -11587.851         0.75        0.775     0.600625   -1879.0605    15514.031 
  770400    51006.178    196.40105    881.46926    2397.3532    3948.9086    6346.2618    7001.9628   -1908.8331    -59.02528    15505.933   -11584.758         0.75        0.775     0.600625   -1849.8078    15505.933 
  770600    51006.178    201.02638    823.74551    2453.8119    3974.8404    6428.6523    7041.4142   -1911.7261    -59.02528    15524.694   -11588.295         0.75        0.775     0.600625   -1852.7008    15524.694 
  770800    51006.178    199.86407    1779.0511    2439.6242     3995.906    6435.5302     7758.918   -1911.5974    -59.02528    15517.646   -11585.749         0.75        0.775     0.600625   -1852.5721    15517.646 
  771000    51006.178    200.94551    1784.3978    2452.8248    3940.9279    6393.7526    7721.1176   -1934.3031    -59.02528    15532.458   -11587.641         0.75        0.775     0.600625   -1875.2778    15532.458 
  771200    51006.178    199.19892    1236.6816    2431.5051    3972.7228    6404.2279    7324.1616   -1911.4866    -59.02528    15511.775   -11589.349         0.75        0.775     0.600625   -1852.4613    15511.775 
  771400    51006.178    204.02625    1025.6471    2490.4295    3998.9073    6489.3368    7252.2878   -1915.6184    -59.02528    15534.557   -11587.405         0.75        0.775     0.600625   -1856.5931    15534.557 
  771600    51006.178    196.94554     885.6711    2403.9995    3973.0384    6377.0379    7035.8645   -1922.9721    -59.02528    15535.439   -11588.276         0.75        0.775     0.600625   -1863.9469    15535.439 
  771800    51006.178     199.0728    1302.8371    2429.9657    3984.6593     6414.625      7383.77   -1922.4932    -59.02528    15530.848   -11590.365         0.75        0.775     0.600625   -1863.4679    15530.848 
  772000    51006.178    200.34345    2476.9494    2445.4757    4015.4882    6460.9639    8303.4992   -1911.7605    -59.02528    15519.609   -11589.876         0.75        0.775     0.600625   -1852.7353    15519.609 
  772200    51006.178    197.05897    2870.5294    2405.3839    3948.4525    6353.8364    8489.1452   -1914.3675    -59.02528     15512.27   -11587.366         0.75        0.775     0.600625   -1855.3422     15512.27 
  772400    51006.178    201.50872    2020.2384    2459.6995    3977.7433    6437.4428    7940.2432   -1924.9661    -59.02528     15531.93   -11586.162         0.75        0.775     0.600625   -1865.9409     15531.93 
  772600    51006.178    201.21971   -8.5450502    2456.1718    3945.0428    6401.2145    6394.8581   -1942.2716    -59.02528    15524.412    -11585.42         0.75        0.775     0.600625   -1883.2463    15524.412 
  772800    51006.178    197.54358   -754.39058    2411.2994     3949.609    6360.9084    5799.7377   -1924.5271    -59.02528    15522.547    -11586.22         0.75        0.775     0.600625   -1865.5019    15522.547 
  773000    51006.178    201.82367    917.14123    2463.5439    3975.8212    6439.3651    7121.6015   -1918.4584    -59.02528    15517.181   -11583.339         0.75        0.775     0.600625   -1859.4332    15517.181 
  773200    51006.178    198.32336    3124.9774    2420.8176    3932.0011    6352.8187    8677.4044    -1896.894    -59.02528    15516.608   -11585.009         0.75        0.775     0.600625   -1837.8687    15516.608 
  773400    51006.178    198.81162    2331.5493    2426.7776     3943.154    6369.9316    8104.3077   -1938.8386    -59.02528    15528.209   -11583.775         0.75        0.775     0.600625   -1879.8134    15528.209 
  773600    51006.178    201.91493    1431.7626    2464.6579    3987.1816    6451.8395    7516.8887    -1914.578    -59.02528    15541.788   -11584.342         0.75        0.775     0.600625   -1855.5527    15541.788 
  773800    51006.178    197.21069    540.11566    2407.2359    3945.3956    6352.6315    6754.4089   -1920.5579    -59.02528    15521.716   -11584.434         0.75        0.775     0.600625   -1861.5326    15521.716 
  774000    51006.178    205.03773     1019.441     2502.776    3949.2115    6451.9876     7210.322   -1937.7158    -59.02528    15541.211   -11587.343         0.75        0.775     0.600625   -1878.6905    15541.211 
  774200    51006.178    199.09838     1606.823    2430.2778    3973.6916    6403.9694    7599.2413   -1922.4302    -59.02528    15522.186   -11590.616         0.75        0.775     0.600625   -1863.4049    15522.186 
  774400    51006.178     199.7746    1484.4291    2438.5321    3929.5591    6368.0912    7472.3176    -1929.926    -59.02528    15524.228    -11589.34         0.75        0.775     0.600625   -1870.9007    15524.228 
  774600    51006.178    206.10203    1162.9847    2515.7674    3947.6166     6463.384    7328.4967    -1931.911    -59.02528     15516.24   -11588.197         0.75        0.775     0.600625   -1872.8857     15516.24 
  774800    51006.178    196.91523    1149.5042    2403.6294    3952.1974    6355.8268    7210.9117   -1927.8689    -59.02528    15522.981   -11589.438         0.75        0.775     0.600625   -1868.8437    15522.981 
  775000    51006.178    200.76444    389.04544    2450.6146    3912.8157    6363.4302    6652.8305   -1933.7848    -59.02528    15508.816   -11591.081         0.75        0.775     0.600625   -1874.7596    15508.816 
  775200    51006.178    204.21885    830.68847    2492.7805    3967.4361    6460.2166    7078.1432   -1912.1214    -59.02528    15514.964    -11588.73         0.75        0.775     0.600625   -1853.0961    15514.964 
  775400    51006.178    198.37771    1567.5504    2421.4811    3928.2759     6349.757    7515.8151    -1931.858    -59.02528    15513.188   -11589.869         0.75        0.775     0.600625   -1872.8327    15513.188 
  775600    51006.178    200.21717    2185.9141    2443.9343    3920.9938    6364.9281    7990.9701    -1921.432    -59.02528    15534.757   -11582.833         0.75        0.775     0.600625   -1862.4068    15534.757 
  775800    51006.178    203.25193     1785.261    2480.9778    3944.9627    6425.9406    7753.9476   -1918.1747    -59.02528    15520.617   -11581.944         0.75        0.775     0.600625   -1859.1494    15520.617 
  776000    51006.178     198.0339    633.26304    2417.2844    3951.7449    6369.0293    6840.0964   -1929.1766    -59.02528     15517.19   -11587.241         0.75        0.775     0.600625   -1870.1513     15517.19 
  776200    51006.178    194.12792    869.24305    2369.6063    3933.4841    6303.0905    6949.6967   -1922.2093    -59.02528    15514.695   -11586.203         0.75        0.775     0.600625   -1863.1841    15514.695 
  776400    51006.178    200.26898    1684.4356    2444.5667    3953.3306    6397.8973    7650.9031   -1914.1566    -59.02528    15528.013   -11586.573         0.75        0.775     0.600625   -1855.1313    15528.013 
  776600    51006.178    198.26317    1527.5466    2420.0829    3930.6285    6350.7114    7487.0118   -1920.3179    -59.02528    15516.561   -11588.397         0.75        0.775     0.600625   -1861.2926    15516.561 
  776800    51006.178    198.38449    774.92366    2421.5638    3898.6186    6320.1824     6896.627   -1937.8835    -59.02528    15526.378   -11586.036         0.75        0.775     0.600625   -1878.8582    15526.378 
  777000    51006.178    199.53473    261.89114    2435.6041    3953.4913    6389.0955    6583.9092   -1924.9665    -59.02528    15520.825   -11586.731         0.75        0.775     0.600625   -1865.9413    15520.825 
  777200    51006.178    199.35587    663.24475     2433.421     3944.985     6378.406    6871.7757    -1928.302    -59.02528    15517.275   -11587.714         0.75        0.775     0.600625   -1869.2768    15517.275 
  777400    51006.178    199.39342     1309.208    2433.8793    3875.4515    6309.3308     7283.215   -1940.6207    -59.02528    15519.222   -11589.925         0.75        0.775     0.600625   -1881.5954    15519.222 
  777600    51006.178    201.91523    2054.3786    2464.6616    3941.4026    6406.0641    7934.2605   -1921.6237    -59.02528    15515.603   -11587.103         0.75        0.775     0.600625   -1862.5984    15515.603 
  777800    51006.178    197.42572    1893.7779    2409.8606     3948.748    6358.6087    7767.3385   -1928.6971    -59.02528    15513.873   -11589.339         0.75        0.775     0.600625   -1869.6718    15513.873 
  778000    51006.178    200.88265    1240.5496    2452.0574     3919.993    6372.0504    7294.8615   -1933.5024    -59.02528    15504.579   -11587.173         0.75        0.775     0.600625   -1874.4771    15504.579 
  778200    51006.178     200.9193    755.84859    2452.5048    3997.3756    6449.8804    7012.1356   -1925.5612    -59.02528    15534.443   -11585.312         0.75        0.775     0.600625   -1866.5359    15534.443 
  778400    51006.178    194.89751    823.29813    2379.0003    3952.7131    6331.7134    6944.1425   -1921.5941    -59.02528    15518.865     -11586.4         0.75        0.775     0.600625   -1862.5688    15518.865 
  778600    51006.178     197.0505    945.76638    2405.2806    3959.0409    6364.3215    7067.8514   -1924.4144    -59.02528    15521.334   -11586.731         0.75        0.775     0.600625   -1865.3891    15521.334 
  778800    51006.178    203.37819    773.65962     2482.519    3947.3987    6429.9177     7005.422   -1908.3396    -59.02528    15502.191   -11585.937         0.75        0.775     0.600625   -1849.3144    15502.191 
  779000    51006.178    201.38787    590.57538    2458.2243    3921.8592    6380.0835    6819.3964   -1943.7014    -59.02528     15520.77   -11585.234         0.75        0.775     0.600625   -1884.6761     15520.77 
  779200    51006.178    198.67149    1759.8337    2425.0671    3968.2474    6393.3145    7702.4069   -1927.0858    -59.02528    15528.696   -11588.877         0.75        0.775     0.600625   -1868.0606    15528.696 
  779400    51006.178    202.41025    1845.5889     2470.704     3972.863     6443.567    7816.4503   -1929.8833    -59.02528    15524.532   -11588.512         0.75        0.775     0.600625    -1870.858    15524.532 
  779600    51006.178    199.30602     1260.537    2432.8125    3914.1519    6346.9644    7284.6436   -1937.1658    -59.02528    15522.973   -11588.515         0.75        0.775     0.600625   -1878.1405    15522.973 
  779800    51006.178    203.20374    1349.2332    2480.3896    3930.8043    6411.1939    7414.8518   -1919.4759    -59.02528    15526.002   -11586.833         0.75        0.775     0.600625   -1860.4506    15526.002 
  780000    51006.178    201.18284    1922.1487    2455.7216    3979.0243    6434.7459      7864.58   -1932.2311    -59.02528    15528.184   -11586.857         0.75        0.775     0.600625   -1873.2059    15528.184 
  780200    51006.178    198.94574    1681.9062    2428.4147    3947.7354    6376.1501    7627.2744   -1922.4262    -59.02528    15527.474   -11590.544         0.75        0.775     0.600625   -1863.4009    15527.474 
  780400    51006.178    191.70002    542.51948    2339.9704    3953.6637    6293.6341    6697.1996   -1926.2265    -59.02528     15522.35   -11589.382         0.75        0.775     0.600625   -1867.2012     15522.35 
  780600    51006.178    198.12769    720.61005    2418.4292    3965.2751    6383.7043    6919.7465   -1929.5384    -59.02528    15511.466   -11589.681         0.75        0.775     0.600625   -1870.5131    15511.466 
  780800    51006.178    203.78094    1439.8594    2487.4351      3937.04    6424.4751    7495.5473   -1936.6599    -59.02528    15525.558   -11587.944         0.75        0.775     0.600625   -1877.6346    15525.558 
  781000    51006.178    199.92246    2591.2639    2440.3369    3892.6018    6332.9387    8260.5094   -1930.7508    -59.02528    15524.071   -11589.624         0.75        0.775     0.600625   -1871.7255    15524.071 
  781200    51006.178    199.66013    2092.4926    2437.1348    3952.9885    6390.1233    7946.6717   -1925.9307    -59.02528     15521.28   -11586.689         0.75        0.775     0.600625   -1866.9054     15521.28 
  781400    51006.178    199.89925    1376.4819    2440.0536    3966.1543    6406.2079    7430.1353   -1913.1243    -59.02528    15515.996    -11587.31         0.75        0.775     0.600625    -1854.099    15515.996 
  781600    51006.178    197.36688    676.81493    2409.1425    3953.6796    6362.8221    6866.2863   -1929.0617    -59.02528    15509.741   -11587.942         0.75        0.775     0.600625   -1870.0364    15509.741 
  781800    51006.178    199.01021    1245.0388    2429.2017    3933.8139    6363.0155     7289.166     -1923.82    -59.02528    15508.758   -11588.336         0.75        0.775     0.600625   -1864.7947    15508.758 
  782000    51006.178    202.84115    1196.1785    2475.9637    3935.6266    6411.5903    7301.3949   -1909.0235    -59.02528     15514.85   -11591.449         0.75        0.775     0.600625   -1849.9983     15514.85 
  782200    51006.178    194.80344    1070.2674     2377.852    3926.1411    6303.9932     7100.136   -1931.1838    -59.02528    15532.762    -11585.94         0.75        0.775     0.600625   -1872.1585    15532.762 
  782400    51006.178    194.90001    1116.6589    2379.0308    3942.0984    6321.1292    7151.7814   -1912.1863    -59.02528    15505.027   -11588.031         0.75        0.775     0.600625   -1853.1611    15505.027 
  782600    51006.178     205.2338     636.2617    2505.1694    3909.3471    6414.5165    6887.8143   -1929.0468    -59.02528    15510.734    -11586.49         0.75        0.775     0.600625   -1870.0216    15510.734 
  782800    51006.178    201.32897    626.55032    2457.5054     3908.848    6366.3534    6832.4271    -1914.993    -59.02528    15515.279   -11590.129         0.75        0.775     0.600625   -1855.9677    15515.279 
  783000    51006.178    197.48285    708.68915     2410.558    3915.6651    6326.2231    6853.3977   -1940.9847    -59.02528    15517.432   -11586.831         0.75        0.775     0.600625   -1881.9594    15517.432 
  783200    51006.178    201.82126    1781.5974    2463.5144    3966.5022    6430.0167    7755.2985   -1924.0829    -59.02528    15519.129   -11584.068         0.75        0.775     0.600625   -1865.0576    15519.129 
  783400    51006.178    197.60399    2247.5991    2412.0367    3938.6991    6350.7358    8022.6637   -1933.4036    -59.02528    15528.175   -11583.147         0.75        0.775     0.600625   -1874.3784    15528.175 
  783600    51006.178    200.74491    2643.8078    2450.3761    3932.7201    6383.0962    8349.7529   -1931.4603    -59.02528    15506.674    -11584.39         0.75        0.775     0.600625   -1872.4351    15506.674 
  783800    51006.178    202.90296    2229.2615    2476.7181    3972.4596    6449.1777    8107.4647   -1922.7496    -59.02528    15512.491    -11586.16         0.75        0.775     0.600625   -1863.7243    15512.491 
  784000    51006.178    195.88506    1185.5661    2391.0547    3971.7803     6362.835    7244.7453   -1926.2787    -59.02528    15525.281   -11585.938         0.75        0.775     0.600625   -1867.2534    15525.281 
  784200    51006.178    197.79027    711.22206    2414.3105    3961.5799    6375.8905    6904.9492   -1914.2714    -59.02528    15512.386   -11588.333         0.75        0.775     0.600625   -1855.2461    15512.386 
  784400    51006.178    200.99453    1317.2184    2453.4231    3948.9188    6402.3419    7382.1848   -1933.0203    -59.02528    15530.648   -11589.934         0.75        0.775     0.600625    -1873.995    15530.648 
  784600    51006.178    202.21604    1592.8431    2468.3333     3874.073    6342.4063    7527.2789   -1940.1542    -59.02528    15513.802   -11589.545         0.75        0.775     0.600625   -1881.1289    15513.802 
  784800    51006.178     197.4629    1095.4684    2410.3146    3895.2572    6305.5718    7120.4609   -1930.8951    -59.02528    15520.198   -11587.256         0.75        0.775     0.600625   -1871.8698    15520.198 
  785000    51006.178    202.08656    686.88937    2466.7529    3935.3925    6402.1454    6913.1037   -1908.5461    -59.02528    15506.758   -11588.969         0.75        0.775     0.600625   -1849.5208    15506.758 
  785200    51006.178    203.90164    1251.1237    2488.9085     3963.818    6452.7265    7383.4034   -1907.3294    -59.02528    15526.474    -11586.97         0.75        0.775     0.600625   -1848.3041    15526.474 
  785400    51006.178    195.05275    793.73853    2380.8952    3961.0815    6341.9767    6932.4172   -1914.1355    -59.02528    15521.012   -11587.617         0.75        0.775     0.600625   -1855.1102    15521.012 
  785600    51006.178    201.05489    526.60083    2454.1598    3915.8856    6370.0455    6761.7695   -1923.3463    -59.02528    15513.289   -11587.122         0.75        0.775     0.600625    -1864.321    15513.289 
  785800    51006.178    200.29848    1747.7572    2444.9269    3988.4311     6433.358     7733.467   -1910.6732    -59.02528    15515.009   -11585.146         0.75        0.775     0.600625   -1851.6479    15515.009 
  786000    51006.178    199.23453     2025.644    2431.9398    3894.6139    6326.5538    7833.3752   -1926.6259    -59.02528    15521.865   -11583.505         0.75        0.775     0.600625   -1867.6006    15521.865 
  786200    51006.178    198.33315    1377.1744    2420.9371    3926.1021    6347.0392    7371.4817   -1934.5093    -59.02528    15532.551   -11583.974         0.75        0.775     0.600625   -1875.4841    15532.551 
  786400    51006.178    202.74961    756.68542    2474.8463     3933.949    6408.7953     6971.673    -1906.499    -59.02528    15522.742   -11583.371         0.75        0.775     0.600625   -1847.4737    15522.742 
  786600    51006.178    203.66314    930.38327    2485.9973     3947.835    6433.8323    7125.9191   -1917.0436    -59.02528    15517.538    -11583.41         0.75        0.775     0.600625   -1858.0184    15517.538 
  786800    51006.178    196.35318    1700.9663    2396.7689    3985.6203    6382.3892    7647.6918   -1922.0654    -59.02528    15533.079   -11587.512         0.75        0.775     0.600625   -1863.0401    15533.079 
  787000    51006.178    201.83294    3024.1024    2463.6571    3920.2948    6383.9519    8633.4994   -1921.1322    -59.02528    15530.398   -11585.667         0.75        0.775     0.600625   -1862.1069    15530.398 
  787200    51006.178     204.9811    2547.6879    2502.0848    3940.9884    6443.0732    8338.2289   -1941.2782    -59.02528    15531.486   -11590.167         0.75        0.775     0.600625   -1882.2529    15531.486 
  787400    51006.178    202.59696    804.60249     2472.983    3896.3879    6369.3709    6967.8928   -1941.5026    -59.02528    15510.193   -11588.206         0.75        0.775     0.600625   -1882.4774    15510.193 
  787600    51006.178    196.89783    85.254517    2403.4171    3921.6447    6325.0618    6388.4803   -1907.3229    -59.02528    15509.782    -11585.55         0.75        0.775     0.600625   -1848.2976    15509.782 
  787800    51006.178    201.37402    212.59683    2458.0552    3968.9226    6426.9778    6585.1228   -1917.6683    -59.02528    15520.072   -11586.765         0.75        0.775     0.600625    -1858.643    15520.072 
  788000    51006.178    199.45439    2063.8621    2434.6235    3937.2452    6371.8687    7907.1196   -1924.5384    -59.02528    15525.461   -11584.173         0.75        0.775     0.600625   -1865.5131    15525.461 
  788200    51006.178    196.10865    2247.7973     2393.784    3919.3008    6313.0848    7985.1601   -1926.5394    -59.02528    15514.266   -11585.464         0.75        0.775     0.600625   -1867.5141    15514.266 
  788400    51006.178    199.43353     1485.161    2434.3688    3985.1421    6419.5109    7524.2817   -1909.8338    -59.02528     15524.95   -11584.575         0.75        0.775     0.600625   -1850.8085     15524.95 
  788600    51006.178    200.76833    1152.5828    2450.6619    3964.9444    6415.6063    7272.9813   -1910.2803    -59.02528    15520.087   -11586.055         0.75        0.775     0.600625    -1851.255    15520.087 
  788800    51006.178     199.9554    628.89519     2440.739    3866.2241    6306.9631    6774.7811   -1930.4069    -59.02528    15521.348   -11587.567         0.75        0.775     0.600625   -1871.3816    15521.348 
  789000    51006.178    200.80395    730.82931    2451.0968     3934.824    6385.9207    6929.5648   -1905.9272    -59.02528      15506.2   -11583.824         0.75        0.775     0.600625   -1846.9019      15506.2 
  789200    51006.178    198.79762    1602.1754    2426.6067    3970.2572    6396.8639    7588.6786   -1913.1219    -59.02528    15515.871   -11582.862         0.75        0.775     0.600625   -1854.0966    15515.871 
  789400    51006.178    199.74545    2317.1008    2438.1763    3917.8458    6356.0221    8079.6503   -1927.9591    -59.02528    15529.823   -11588.831         0.75        0.775     0.600625   -1868.9338    15529.823 
  789600    51006.178    197.93691     1382.066    2416.1005    3903.4842    6319.5847     7347.666   -1937.9278    -59.02528    15503.261   -11588.306         0.75        0.775     0.600625   -1878.9025    15503.261 
  789800    51006.178     198.9208    1262.7233    2428.1102    4002.5484    6430.6586    7369.9642   -1924.3182    -59.02528    15530.217   -11582.502         0.75        0.775     0.600625   -1865.2929    15530.217 
  790000    51006.178    197.96555    1159.2112    2416.4501    3962.1839    6378.6341    7240.9397   -1914.7576    -59.02528    15534.761   -11587.166         0.75        0.775     0.600625   -1855.7324    15534.761 
  790200    51006.178    197.56194    1721.6487    2411.5235    3915.5814    6327.1049    7607.7925   -1911.7305    -59.02528      15512.4    -11588.15         0.75        0.775     0.600625   -1852.7053      15512.4 
  790400    51006.178    202.21602    1607.8295     2468.333    3958.8652    6427.1982    7623.2189   -1915.8536    -59.02528    15521.613   -11588.167         0.75        0.775     0.600625   -1856.8283    15521.613 
  790600    51006.178    196.71494    1235.0512    2401.1846    3931.0857    6332.2703    7250.9913   -1916.9756    -59.02528    15499.459    -11588.27         0.75        0.775     0.600625   -1857.9503    15499.459 
  790800    51006.178    200.36349    1291.1482    2445.7203    3961.9158    6407.6362    7368.0861   -1917.9755    -59.02528    15532.964   -11588.387         0.75        0.775     0.600625   -1858.9502    15532.964 
  791000    51006.178    199.56503     1022.126     2435.974     3983.329     6419.303    7179.6347   -1915.3535    -59.02528    15523.534   -11586.258         0.75        0.775     0.600625   -1856.3282    15523.534 
  791200    51006.178    197.36011    1096.2705    2409.0598    3959.1893    6368.2492     7183.735   -1907.7821    -59.02528    15539.293   -11585.316         0.75        0.775     0.600625   -1848.7569    15539.293 
  791400    51006.178    194.49705    1404.2885    2374.1121    3977.7007    6351.8128    7396.4248   -1922.3723    -59.02528    15528.075   -11588.143         0.75        0.775     0.600625   -1863.3471    15528.075 
  791600    51006.178    204.17534    1928.5474    2492.2493    3946.7196    6438.9689    7873.5629   -1922.9814    -59.02528    15541.457   -11589.031         0.75        0.775     0.600625   -1863.9561    15541.457 
  791800    51006.178    199.71575    1903.3218    2437.8138    3927.3683    6365.1821    7781.0114   -1921.4664    -59.02528    15522.482   -11587.552         0.75        0.775     0.600625   -1862.4412    15522.482 
  792000    51006.178    198.90393    1342.6573    2427.9044     3989.632    6417.5364    7416.3027   -1915.1144    -59.02528    15526.786   -11585.628         0.75        0.775     0.600625   -1856.0891    15526.786 
  792200    51006.178    201.67835    1019.1665    2461.7701    3992.7309     6454.501    7212.6312    -1912.062    -59.02528    15531.256   -11587.332         0.75        0.775     0.600625   -1853.0368    15531.256 
  792400    51006.178     198.0348    1249.5906    2417.2954    3946.7896     6364.085    7293.6215   -1916.9227    -59.02528     15518.69   -11588.174         0.75        0.775     0.600625   -1857.8974     15518.69 
  792600    51006.178    203.03865    1252.8393    2478.3744    3901.2936     6379.668    7311.6211   -1916.2189    -59.02528    15506.653   -11587.262         0.75        0.775     0.600625   -1857.1936    15506.653 
  792800    51006.178    194.51662    1003.6503     2374.351    3907.9641    6282.3151    7028.9033   -1918.0876    -59.02528    15520.159   -11585.058         0.75        0.775     0.600625   -1859.0623    15520.159 
  793000    51006.178    203.95191    795.45816    2489.5221    3896.6379    6386.1599    6977.8796   -1922.8048    -59.02528    15505.431   -11584.291         0.75        0.775     0.600625   -1863.7795    15505.431 
  793200    51006.178    202.19058    1312.5465    2468.0226    3923.2078    6391.2304     7367.598   -1938.4083    -59.02528    15531.022   -11583.378         0.75        0.775     0.600625    -1879.383    15531.022 
  793400    51006.178    198.23399    2127.9604    2419.7268    3942.6109    6362.3378    7945.2696   -1914.4494    -59.02528    15507.058   -11583.524         0.75        0.775     0.600625   -1855.4241    15507.058 
  793600    51006.178    203.08351    1538.7312    2478.9221    3967.9861    6446.9081    7591.5284   -1920.8476    -59.02528    15516.958    -11583.72         0.75        0.775     0.600625   -1861.8224    15516.958 
  793800    51006.178    196.75405    547.42633     2401.662    3932.6428    6334.3048    6741.5203   -1925.7555    -59.02528    15507.862   -11585.005         0.75        0.775     0.600625   -1866.7303    15507.862 
  794000    51006.178     200.8688     1586.144    2451.8884    3926.0749    6377.9633    7557.8526   -1913.0571    -59.02528    15512.022   -11586.206         0.75        0.775     0.600625   -1854.0318    15512.022 
  794200    51006.178    205.16127     1330.486    2504.2841    3918.7221    6423.0062    7412.7185   -1913.9796    -59.02528    15521.992   -11590.767         0.75        0.775     0.600625   -1854.9544    15521.992 
  794400    51006.178    197.04452    1188.8693    2405.2076    3894.1738    6299.3814    7183.7489   -1902.5737    -59.02528    15481.944   -11592.347         0.75        0.775     0.600625   -1843.5484    15481.944 
  794600    51006.178    200.74494    1396.4055    2450.3765    3915.8329    6366.2094    7404.9574   -1913.3253    -59.02528     15513.62   -11591.852         0.75        0.775     0.600625      -1854.3     15513.62 
  794800    51006.178    198.94596    1304.7852    2428.4174    3972.0671    6400.4845    7371.0787    -1926.214    -59.02528    15519.636   -11587.768         0.75        0.775     0.600625   -1867.1887    15519.636 
  795000    51006.178    201.33038    1042.5009    2457.5226    3923.8744    6381.3969     7156.885   -1943.8956    -59.02528    15530.747   -11588.121         0.75        0.775     0.600625   -1884.8704    15530.747 
  795200    51006.178    200.59691    1462.1397    2448.5696    3965.4209    6413.9905    7501.6364   -1919.2336    -59.02528    15508.524   -11587.577         0.75        0.775     0.600625   -1860.2083    15508.524 
  795400    51006.178    199.04384    1590.8038    2429.6122    4020.2336    6449.8457    7633.2014   -1909.9481    -59.02528    15528.827   -11589.197         0.75        0.775     0.600625   -1850.9228    15528.827 
  795600    51006.178    197.52269    1330.4588    2411.0444    3975.5459    6386.5902    7376.2823   -1958.7801    -59.02528    15518.359   -11587.008         0.75        0.775     0.600625   -1899.7548    15518.359 
  795800    51006.178    200.70871    1384.1594    2449.9343    3881.5975    6331.5318    7361.1703   -1932.5409    -59.02528     15509.02   -11590.632         0.75        0.775     0.600625   -1873.5157     15509.02 
  796000    51006.178    196.53163    545.48547    2398.9471    3905.7093    6304.6564    6710.4282   -1940.0747    -59.02528    15506.822   -11591.939         0.75        0.775     0.600625   -1881.0494    15506.822 
  796200    51006.178    199.84293    1260.8855    2439.3662    3953.4929    6392.8591    7330.7975   -1919.8229    -59.02528    15520.369   -11587.137         0.75        0.775     0.600625   -1860.7976    15520.369 
  796400    51006.178      201.858    1611.8139    2463.9629    3960.5826    6424.5456    7623.5301    -1929.177    -59.02528    15521.017    -11586.59         0.75        0.775     0.600625   -1870.1517    15521.017 
  796600    51006.178    197.55891    1982.0381    2411.4864     3968.705    6380.1914    7854.5757   -1902.8201    -59.02528     15528.01   -11586.142         0.75        0.775     0.600625   -1843.7948     15528.01 
  796800    51006.178    199.93839    1096.7679    2440.5314    3989.1136     6429.645    7245.5008    -1917.358    -59.02528    15502.563   -11585.873         0.75        0.775     0.600625   -1858.3327    15502.563 
  797000    51006.178    198.56532    1060.9933    2423.7711    3999.4199     6423.191     7212.435   -1895.8538    -59.02528    15526.787   -11582.399         0.75        0.775     0.600625   -1836.8285    15526.787 
  797200    51006.178    201.24705     1672.428    2456.5054    3943.3519    6399.8573     7643.931   -1924.4602    -59.02528    15527.586   -11584.602         0.75        0.775     0.600625    -1865.435    15527.586 
  797400    51006.178    198.45541    1959.2658    2422.4295     3942.378    6364.8075     7822.252     -1926.83    -59.02528    15533.519   -11584.377         0.75        0.775     0.600625   -1867.8047    15533.519 
  797600    51006.178    195.83199    751.55412     2390.407    3952.4918    6342.8988    6901.9594    -1928.669    -59.02528    15503.267   -11588.081         0.75        0.775     0.600625   -1869.6438    15503.267 
  797800    51006.178    199.94201    534.64742    2440.5756    3975.9411    6416.5167    6814.2263   -1908.7195    -59.02528    15509.445   -11584.392         0.75        0.775     0.600625   -1849.6942    15509.445 
  798000    51006.178    195.48045    1102.5292    2386.1159    3944.2598    6330.3757    7150.5171   -1925.9412    -59.02528    15512.411   -11587.464         0.75        0.775     0.600625   -1866.9159    15512.411 
  798200    51006.178    196.26492    1926.0565    2395.6915    3939.8742    6335.5657    7768.3067   -1927.6538    -59.02528    15514.623   -11585.913         0.75        0.775     0.600625   -1868.6286    15514.623 
  798400    51006.178    201.43137     1912.779    2458.7553    3938.7199    6397.4752    7820.3394   -1940.2809    -59.02528    15514.259   -11586.084         0.75        0.775     0.600625   -1881.2556    15514.259 
  798600    51006.178    198.87605    1329.4437     2427.564    3948.4738    6376.0378    7364.9748   -1926.2305    -59.02528    15508.123   -11584.255         0.75        0.775     0.600625   -1867.2052    15508.123 
  798800    51006.178    198.66205    510.59662    2424.9519    3914.4957    6339.4477    6719.2666   -1949.2338    -59.02528    15508.021   -11587.224         0.75        0.775     0.600625   -1890.2086    15508.021 
  799000    51006.178    198.39654    867.03815    2421.7109    3980.8892    6402.6001    7047.5662   -1916.1699    -59.02528    15518.359    -11586.34         0.75        0.775     0.600625   -1857.1447    15518.359 
  799200    51006.178    200.13822    751.79282    2442.9706    3955.0589    6398.0295    6957.2678   -1933.7348    -59.02528    15513.606   -11588.121         0.75        0.775     0.600625   -1874.7096    15513.606 
  799400    51006.178    193.65274    1199.9855    2363.8061    3917.9712    6281.7773    7174.4139   -1914.5819    -59.02528    15510.458   -11589.148         0.75        0.775     0.600625   -1855.5566    15510.458 
  799600    51006.178    199.81296    1578.0956    2439.0003    3929.8331    6368.8334    7542.7358   -1934.9588    -59.02528    15535.894   -11588.806         0.75        0.775     0.600625   -1875.9336    15535.894 
  799800    51006.178    203.31985    965.25498     2481.807    3949.9851    6431.7921     7149.819   -1911.5169    -59.02528    15497.157   -11588.359         0.75        0.775     0.600625   -1852.4916    15497.157 
  800000    51006.178    196.99231    897.77329    2404.5703    3915.8864    6320.4567    6988.2858   -1928.8426    -59.02528     15506.25   -11588.775         0.75        0.775     0.600625   -1869.8173     15506.25 
  800200    51006.178    201.19532    1486.4985     2455.874    3932.4584    6388.3323    7494.0981   -1927.3842    -59.02528    15527.501    -11587.51         0.75        0.775     0.600625   -1868.3589    15527.501 
  800400    51006.178    200.44055    2148.1566     2446.661    3990.7033    6437.3643    8035.3195    -1927.882    -59.02528    15534.188   -11583.933         0.75        0.775     0.600625   -1868.8567    15534.188 
  800600    51006.178    196.53668    1638.2218    2399.0087    3919.0164     6318.025    7536.6537   -1928.8296    -59.02528    15521.356   -11586.013         0.75        0.775     0.600625   -1869.8043    15521.356 
  800800    51006.178    200.88427    982.46417    2452.0771    3944.9679    6397.0451    7127.8734   -1921.1402    -59.02528    15533.119   -11590.127         0.75        0.775     0.600625   -1862.1149    15533.119 
  801000    51006.178    200.43667    880.00219    2446.6137    3974.0844    6420.6981    7075.3078   -1926.9491    -59.02528     15532.72   -11588.816         0.75        0.775     0.600625   -1867.9239     15532.72 
  801200    51006.178    201.93163    1918.2443    2464.8617    3917.1477    6382.0094    7808.9392   -1923.1964    -59.02528    15527.202   -11589.717         0.75        0.775     0.600625   -1864.1711    15527.202 
  801400    51006.178    200.55911    1326.5357    2448.1082    3967.5059     6415.614    7402.3879   -1934.9729    -59.02528    15538.877   -11584.389         0.75        0.775     0.600625   -1875.9476    15538.877 
  801600    51006.178     198.5508    453.89485    2423.5939    3994.0346    6417.6285    6755.2685   -1911.3718    -59.02528    15514.657   -11589.629         0.75        0.775     0.600625   -1852.3465    15514.657 
  801800    51006.178     198.9298   -224.00143    2428.2202     3894.748    6322.9682    6156.3396   -1938.4719    -59.02528    15526.842   -11587.781         0.75        0.775     0.600625   -1879.4466    15526.842 
  802000    51006.178    203.40939    609.30042    2482.8999    3935.3412    6418.2411    6871.4831   -1934.9297    -59.02528    15527.678   -11586.779         0.75        0.775     0.600625   -1875.9044    15527.678 
  802200    51006.178    198.45605     2403.405    2422.4373    3969.4493    6391.8866    8179.7141   -1917.9248    -59.02528    15532.226    -11588.46         0.75        0.775     0.600625   -1858.8995    15532.226 
  802400    51006.178    200.10678    2395.9448    2442.5868    3962.4288    6405.0156    8187.2938   -1936.4449    -59.02528    15536.749   -11589.116         0.75        0.775     0.600625   -1877.4196    15536.749 
  802600    51006.178    203.98579    1714.3052    2489.9357     3942.576    6432.5117    7707.7367   -1917.5196    -59.02528    15512.361   -11590.534         0.75        0.775     0.600625   -1858.4943    15512.361 
  802800    51006.178    198.44099   -96.095322    2422.2535    3924.2097    6346.4632    6274.9805   -1939.6631    -59.02528     15499.27   -11585.818         0.75        0.775     0.600625   -1880.6378     15499.27 
  803000    51006.178    201.35909    157.10309     2457.873    3990.6109    6448.4839    6565.3487   -1919.9438    -59.02528    15509.351    -11587.96         0.75        0.775     0.600625   -1860.9186    15509.351 
  803200    51006.178     201.5316    1461.1199    2459.9788    3952.1102    6412.0889    7498.9762   -1924.3865    -59.02528    15523.832   -11587.536         0.75        0.775     0.600625   -1865.3612    15523.832 
  803400    51006.178    198.27818    1648.9575    2420.2661    3925.7068     6345.973    7572.5876   -1923.8915    -59.02528    15509.144   -11589.154         0.75        0.775     0.600625   -1864.8662    15509.144 
  803600    51006.178     196.4095    1760.0382    2397.4563    3864.1848    6261.6412    7570.8857   -1912.4019    -59.02528    15494.949   -11586.384         0.75        0.775     0.600625   -1853.3766    15494.949 
  803800    51006.178    196.77849    1435.3982    2401.9604    3956.1779    6358.1382    7425.8919   -1917.0038    -59.02528    15497.942   -11591.636         0.75        0.775     0.600625   -1857.9785    15497.942 
  804000    51006.178    201.53218    970.94687    2459.9859    3959.6804    6419.6663    7141.9272   -1921.1489    -59.02528    15513.997   -11589.216         0.75        0.775     0.600625   -1862.1237    15513.997 
  804200    51006.178    200.03785    1350.3229    2441.7454    3897.0346    6338.7801    7343.2485   -1938.5967    -59.02528    15516.121   -11588.617         0.75        0.775     0.600625   -1879.5714    15516.121 
  804400    51006.178    197.84488    2121.1803    2414.9772    3962.5581    6377.5353    7955.4236    -1926.316    -59.02528    15529.127   -11586.397         0.75        0.775     0.600625   -1867.2907    15529.127 
  804600    51006.178    200.88139    1928.4417     2452.042    3958.6591    6410.7011    7845.2164   -1927.3573    -59.02528    15532.346     -11586.1         0.75        0.775     0.600625    -1868.332    15532.346 
  804800    51006.178    198.89544    671.44765    2427.8007    3926.3403     6354.141    6853.6127   -1924.9196    -59.02528     15525.72   -11591.806         0.75        0.775     0.600625   -1865.8943     15525.72 
  805000    51006.178    199.70941     491.4021    2437.7364    3915.6422    6353.3786    6718.9192   -1927.8979    -59.02528    15506.489   -11589.871         0.75        0.775     0.600625   -1868.8726    15506.489 
  805200    51006.178    204.51176    1274.8017    2496.3558     3932.272    6428.6278    7376.9181   -1931.9519    -59.02528    15522.958   -11587.165         0.75        0.775     0.600625   -1872.9267    15522.958 
  805400    51006.178     195.4919    1859.1915    2386.2557    3971.8276    6358.0833    7741.0853   -1926.1458    -59.02528    15534.383   -11589.457         0.75        0.775     0.600625   -1867.1205    15534.383 
  805600    51006.178    204.69406    1411.2227    2498.5811    3961.2248    6459.8059     7509.576   -1914.5188    -59.02528    15515.328   -11587.836         0.75        0.775     0.600625   -1855.4936    15515.328 
  805800    51006.178    200.42751    1158.1937    2446.5018    3938.5551    6385.0569    7246.6057   -1910.5443    -59.02528    15500.443   -11591.683         0.75        0.775     0.600625    -1851.519    15500.443 
  806000    51006.178    199.77226    1979.7167    2438.5036    3962.6067    6401.1103    7873.7676   -1904.7854    -59.02528    15531.944   -11589.781         0.75        0.775     0.600625   -1845.7601    15531.944 
  806200    51006.178     197.1282    2422.6428    2406.2291    3993.0722    6399.3012    8201.4393   -1889.8301    -59.02528    15521.814   -11587.917         0.75        0.775     0.600625   -1830.8048    15521.814 
  806400    51006.178    200.63618    1712.6153    2449.0489    3957.0266    6406.0756    7680.0435    -1898.977    -59.02528    15509.682   -11590.505         0.75        0.775     0.600625   -1839.9517    15509.682 
  806600    51006.178    198.79695    490.85757    2426.5986    3985.4075    6412.0061    6777.1417   -1913.3938    -59.02528    15514.994    -11588.92         0.75        0.775     0.600625   -1854.3686    15514.994 
  806800    51006.178    198.03826    781.96901    2417.3376    3967.9655     6385.303    6966.9885   -1911.8735    -59.02528    15512.803   -11587.228         0.75        0.775     0.600625   -1852.8482    15512.803 
  807000    51006.178    201.74184    1380.1434    2462.5451    3873.4644    6336.0094    7362.6606   -1928.9286    -59.02528    15505.675   -11586.584         0.75        0.775     0.600625   -1869.9033    15505.675 
  807200    51006.178    201.27479    2216.0364    2456.8441    3999.1635    6456.0076    8104.4568   -1899.7793    -59.02528    15520.516    -11587.18         0.75        0.775     0.600625    -1840.754    15520.516 
  807400    51006.178    199.85441    2116.3094    2439.5062    3963.7954    6403.3017    7977.5666   -1908.8367    -59.02528    15521.723   -11585.931         0.75        0.775     0.600625   -1849.8114    15521.723 
  807600    51006.178    198.23846    1832.0983    2419.7813    3934.9415    6354.7228    7717.5709   -1920.3254    -59.02528    15526.663   -11586.999         0.75        0.775     0.600625   -1861.3001    15526.663 
  807800    51006.178    202.72996    627.03569    2474.6065    3992.9247    6467.5312     6933.966   -1913.3453    -59.02528    15514.172   -11585.408         0.75        0.775     0.600625     -1854.32    15514.172 
  808000    51006.178    201.81348    1000.8297    2463.4195    3917.8721    6381.2917    7125.7817   -1931.1342    -59.02528    15525.745   -11583.157         0.75        0.775     0.600625   -1872.1089    15525.745 
  808200    51006.178    195.77759    2200.8796     2389.743    3950.0452    6339.7882    7976.9626   -1893.9747    -59.02528    15506.433   -11588.203         0.75        0.775     0.600625   -1834.9494    15506.433 
  808400    51006.178    199.36236    1907.7965    2433.5001    4015.3658    6448.8659    7868.0238   -1890.5984    -59.02528    15530.178   -11584.009         0.75        0.775     0.600625   -1831.5731    15530.178 
  808600    51006.178    199.40721    940.94063    2434.0476    3951.5855    6385.6331    7085.5732   -1908.2175    -59.02528     15525.29   -11587.296         0.75        0.775     0.600625   -1849.1922     15525.29 
  808800    51006.178    197.54621    497.85362    2411.3315    3869.3988    6280.7303    6651.0701   -1900.2519    -59.02528    15509.992   -11592.571         0.75        0.775     0.600625   -1841.2266    15509.992 
  809000    51006.178    195.73296    1120.2384    2389.1982    3936.8565    6326.0547    7159.3696   -1930.3294    -59.02528    15519.143   -11588.033         0.75        0.775     0.600625   -1871.3041    15519.143 
  809200    51006.178    201.90031    2099.8056    2464.4794     3920.115    6384.5944    7946.5827   -1907.6316    -59.02528    15509.778   -11591.643         0.75        0.775     0.600625   -1848.6064    15509.778 
  809400    51006.178    196.42741     1844.488    2397.6749     3897.007    6294.6819    7666.7464   -1911.0482    -59.02528    15506.706     -11590.8         0.75        0.775     0.600625   -1852.0229    15506.706 
  809600    51006.178    199.19306    1058.0838    2431.4335    3938.5082    6369.9417    7157.0214   -1925.2191    -59.02528    15529.173   -11588.092         0.75        0.775     0.600625   -1866.1938    15529.173 
  809800    51006.178      199.171    663.01671    2431.1643    3973.5602    6404.7245    6897.9246   -1918.8097    -59.02528    15533.588   -11587.984         0.75        0.775     0.600625   -1859.7844    15533.588 
  810000    51006.178    203.60721     1019.735    2485.3145    3948.2689    6433.5834    7192.1365   -1934.6844    -59.02528    15524.137   -11585.969         0.75        0.775     0.600625   -1875.6591    15524.137 
  810200    51006.178    198.51224    2108.9524    2423.1232    3918.9433    6342.0665    7910.8588   -1938.0185    -59.02528    15507.608   -11585.581         0.75        0.775     0.600625   -1878.9932    15507.608 
  810400    51006.178    199.94447    2654.1526    2440.6057    3960.0221    6400.6277    8374.9796   -1917.4932    -59.02528    15527.099   -11586.254         0.75        0.775     0.600625   -1858.4679    15527.099 
  810600    51006.178    200.70991    1602.8497    2449.9488     3967.324    6417.2728    7609.5891   -1887.3402    -59.02528    15496.152   -11589.885         0.75        0.775     0.600625   -1828.3149    15496.152 
  810800    51006.178     198.6599    157.17936    2424.9256    3948.4759    6373.4015     6490.323    -1918.265    -59.02528     15520.08   -11590.621         0.75        0.775     0.600625   -1859.2397     15520.08 
  811000    51006.178    206.79895    742.03457    2524.2742    3965.2997    6489.5739    7041.5533   -1912.4051    -59.02528    15530.778   -11586.089         0.75        0.775     0.600625   -1853.3798    15530.778 
  811200    51006.178    201.47459    1740.7849    2459.2828    4045.0392     6504.322    7799.2445   -1910.9674    -59.02528    15534.769   -11586.298         0.75        0.775     0.600625   -1851.9421    15534.769 
  811400    51006.178    196.08629    1939.2672     2393.511    4007.8308    6401.3418    7843.9099   -1926.9612    -59.02528     15538.95   -11586.906         0.75        0.775     0.600625   -1867.9359     15538.95 
  811600    51006.178    200.67913    1757.4518    2449.5731    3942.7639     6392.337    7699.6576   -1927.4334    -59.02528    15519.828   -11584.045         0.75        0.775     0.600625   -1868.4081    15519.828 
  811800    51006.178    204.09947    916.77703    2491.3232    3998.8561    6490.1793    7172.1448   -1904.6888    -59.02528    15504.416   -11584.711         0.75        0.775     0.600625   -1845.6635    15504.416 
  812000    51006.178    198.62526    153.42411    2424.5027    3981.6676    6406.1704    6520.2984   -1923.9214    -59.02528    15515.788   -11584.563         0.75        0.775     0.600625   -1864.8961    15515.788 
  812200    51006.178    205.81411    1618.0134    2512.2529    3879.5184    6391.7713    7595.3675   -1929.5525    -59.02528    15519.882   -11582.894         0.75        0.775     0.600625   -1870.5272    15519.882 
  812400    51006.178    205.61737    2058.6708    2509.8514    3968.0833    6477.9347    8009.3239   -1921.5139    -59.02528    15524.147   -11585.495         0.75        0.775     0.600625   -1862.4886    15524.147 
  812600    51006.178    195.99108    1466.5993    2392.3489    3979.3295    6371.6784    7462.6417   -1915.5551    -59.02528    15519.061   -11585.585         0.75        0.775     0.600625   -1856.5299    15519.061 
  812800    51006.178    203.09664    439.65023    2479.0823     3902.169    6381.2512    6708.2951   -1929.0892    -59.02528    15506.602   -11587.775         0.75        0.775     0.600625    -1870.064    15506.602 
  813000    51006.178    200.98522    927.81606    2453.3094    3978.4665    6431.7758     7121.953   -1929.6371    -59.02528    15530.039   -11589.526         0.75        0.775     0.600625   -1870.6118    15530.039 
  813200    51006.178    197.07894    1546.9064    2405.6278    3973.2457    6378.8735    7529.5751   -1930.9578    -59.02528    15518.991   -11584.591         0.75        0.775     0.600625   -1871.9325    15518.991 
  813400    51006.178    195.23112    1804.0106    2383.0725    3983.7053    6366.7778    7708.7322   -1932.2032    -59.02528    15545.724    -11583.06         0.75        0.775     0.600625    -1873.178    15545.724 
  813600    51006.178    202.71078    1002.5026    2474.3724    3962.0102    6436.3826     7182.117   -1923.2702    -59.02528    15501.035   -11584.883         0.75        0.775     0.600625    -1864.245    15501.035 
  813800    51006.178    199.09815    211.40803     2430.275    3951.6168    6381.8919    6539.1525   -1928.9413    -59.02528    15503.949   -11585.953         0.75        0.775     0.600625    -1869.916    15503.949 
  814000    51006.178    198.90497    892.71018     2427.917    3923.7436    6351.6606    7015.7234   -1922.8729    -59.02528    15507.293   -11586.144         0.75        0.775     0.600625   -1863.8476    15507.293 
  814200    51006.178    203.18735    1864.9035    2480.1895    3965.8296    6446.0192    7833.2701   -1915.3558    -59.02528    15512.531    -11588.32         0.75        0.775     0.600625   -1856.3306    15512.531 
  814400    51006.178    195.26371    2061.2572    2383.4704     3997.109    6380.5793    7913.8925   -1911.5527    -59.02528    15523.214   -11587.517         0.75        0.775     0.600625   -1852.5274    15523.214 
  814600    51006.178    195.74604    1257.2966    2389.3578    3899.8283     6289.186    7224.4548   -1914.0235    -59.02528    15520.573    -11586.93         0.75        0.775     0.600625   -1854.9983    15520.573 
  814800    51006.178    204.01063    1100.2587    2490.2389    3916.3956    6406.6345     7225.087   -1921.4608    -59.02528    15505.244   -11588.038         0.75        0.775     0.600625   -1862.4355    15505.244 
  815000    51006.178    197.48381    1391.0825    2410.5698    4010.4161    6420.9858    7455.7743   -1925.7822    -59.02528    15504.255   -11589.688         0.75        0.775     0.600625   -1866.7569    15504.255 
  815200    51006.178    195.46624    1965.6395    2385.9425     3941.161    6327.1035    7789.2893   -1928.4887    -59.02528    15536.911   -11586.611         0.75        0.775     0.600625   -1869.4634    15536.911 
  815400    51006.178    202.20275    1813.8178    2468.1711    3963.0768    6431.2479    7780.4976   -1932.6039    -59.02528    15518.106   -11584.249         0.75        0.775     0.600625   -1873.5786    15518.106 
  815600    51006.178    200.14726    386.47775    2443.0809    3945.1435    6388.2244    6675.7146   -1924.9005    -59.02528    15524.172   -11585.599         0.75        0.775     0.600625   -1865.8752    15524.172 
  815800    51006.178    200.96294    132.93062    2453.0375    3942.4251    6395.4626    6494.3461   -1916.3918    -59.02528    15514.938   -11588.785         0.75        0.775     0.600625   -1857.3666    15514.938 
  816000    51006.178    202.10263    1193.4083     2466.949    3976.6165    6443.5655    7331.3094   -1916.0547    -59.02528    15521.376   -11589.713         0.75        0.775     0.600625   -1857.0295    15521.376 
  816200    51006.178    199.63386    1520.0001    2436.8142    3901.4192    6338.2334      7468.92   -1933.0837    -59.02528    15517.361   -11585.225         0.75        0.775     0.600625   -1874.0584    15517.361 
  816400    51006.178    202.77298    1276.1954    2475.1316    3944.0456    6419.1773    7368.5043   -1924.9113    -59.02528    15517.751   -11588.706         0.75        0.775     0.600625    -1865.886    15517.751 
  816600    51006.178    202.48726    1184.5308     2471.644    3915.1694    6386.8134    7267.9537   -1937.7064    -59.02528    15515.202   -11587.012         0.75        0.775     0.600625   -1878.6811    15515.202 
  816800    51006.178    197.35119    1352.5453    2408.9509    3934.2368    6343.1878    7349.3094   -1924.7629    -59.02528    15533.313   -11588.425         0.75        0.775     0.600625   -1865.7376    15533.313 
  817000    51006.178    203.69101    1636.4711    2486.3375     3938.776    6425.1135    7642.4398   -1933.6986    -59.02528    15525.298   -11585.337         0.75        0.775     0.600625   -1874.6733    15525.298 
  817200    51006.178    197.19765    1848.1327    2407.0768    3931.2894    6338.3662    7713.1418   -1907.8389    -59.02528    15506.144   -11589.232         0.75        0.775     0.600625   -1848.8136    15506.144 
  817400    51006.178    201.59839    1636.7361     2460.794    3990.0512    6450.8452    7668.3687   -1928.6553    -59.02528    15516.827   -11588.618         0.75        0.775     0.600625     -1869.63    15516.827 
  817600    51006.178     200.0423    1147.2602    2441.7998    3951.7751    6393.5749    7246.9905   -1933.1434    -59.02528     15500.82   -11587.148         0.75        0.775     0.600625   -1874.1181     15500.82 
  817800    51006.178    197.71319    1924.2337    2413.3697    3931.4676    6344.8373    7776.2223   -1918.0088    -59.02528    15524.616   -11584.186         0.75        0.775     0.600625   -1858.9835    15524.616 
  818000    51006.178    204.20338    1991.4854    2492.5917    3958.1228    6450.7145    7932.1263   -1920.4702    -59.02528    15515.776   -11586.241         0.75        0.775     0.600625   -1861.4449    15515.776 
  818200    51006.178    200.12318    1686.6929     2442.787    3956.2709    6399.0579    7653.7429   -1904.0646    -59.02528    15503.804   -11586.914         0.75        0.775     0.600625   -1845.0393    15503.804 
  818400    51006.178    196.10238    1112.0775    2393.7075    3960.3165     6354.024    7181.2682   -1933.0831    -59.02528    15516.512    -11587.36         0.75        0.775     0.600625   -1874.0578    15516.512 
[...]
 2734200    51006.178    201.92733    1351.6706    2464.8092    3979.0078     6443.817    7449.2879   -1913.9183    -59.02528    15526.066    -11586.68         0.75        0.775     0.600625    -1854.893    15526.066 
 2734400    51006.178    201.82257    1273.3879    2463.5304    3932.1754    6395.7059    7342.9445   -1918.1451    -59.02528    15518.945   -11587.994         0.75        0.775     0.600625   -1859.1198    15518.945 
 2734600    51006.178    198.13767    787.58694    2418.5511    3944.7707    6363.3218    6949.1863    -1942.241    -59.02528    15520.705   -11585.714         0.75        0.775     0.600625   -1883.2157    15520.705 
 2734800    51006.178    203.17199    1567.3581    2480.0021    3996.7971    6476.7992    7642.7142   -1913.4081    -59.02528    15519.285   -11587.064         0.75        0.775     0.600625   -1854.3828    15519.285 
 2735000    51006.178    199.53274    1515.6958    2435.5799    3955.4535    6391.0334    7518.5182   -1914.9223    -59.02528     15519.81   -11581.744         0.75        0.775     0.600625    -1855.897     15519.81 
 2735200    51006.178    201.59829    1602.4814    2460.7928    3966.1875    6426.9804    7619.0227   -1919.0245    -59.02528    15528.254   -11584.941         0.75        0.775     0.600625   -1859.9993    15528.254 
 2735400    51006.178    200.86038    1522.0154    2451.7855    4022.1247    6473.9102     7606.096   -1914.2841    -59.02528    15517.195   -11582.267         0.75        0.775     0.600625   -1855.2588    15517.195 
 2735600    51006.178    201.85331    1180.3653    2463.9057    3917.1256    6381.0312    7259.0729   -1949.3926    -59.02528    15516.125   -11587.715         0.75        0.775     0.600625   -1890.3673    15516.125 
 2735800    51006.178    200.78204    1345.9434    2450.8293    3917.5258    6368.3551    7369.5658   -1926.6807    -59.02528     15515.56   -11590.945         0.75        0.775     0.600625   -1867.6554     15515.56 
 2736000    51006.178    201.33472    1122.6953    2457.5756    4010.4475    6468.0231    7303.1655   -1914.0672    -59.02528    15518.898   -11586.662         0.75        0.775     0.600625   -1855.0419    15518.898 
 2736200    51006.178    200.67455    1007.5643    2449.5172    3909.9346    6359.4518    7108.9515   -1934.3682    -59.02528    15526.017   -11584.713         0.75        0.775     0.600625   -1875.3429    15526.017 
 2736400    51006.178    201.96384    2072.6992    2465.2549    3917.3546    6382.6096    7924.4341   -1915.4986    -59.02528    15506.045   -11590.747         0.75        0.775     0.600625   -1856.4733    15506.045 
 2736600    51006.178    203.99616    2426.0672    2490.0622    3917.4691    6407.5313    8212.2167   -1925.9765    -59.02528    15514.049   -11587.703         0.75        0.775     0.600625   -1866.9512    15514.049 
 2736800    51006.178    199.53765    1238.4699    2435.6398     3899.857    6335.4969    7256.7609   -1922.0279    -59.02528    15518.113   -11583.425         0.75        0.775     0.600625   -1863.0026    15518.113 
 2737000    51006.178    200.27013    266.47302    2444.5807    3978.0796    6422.6604    6620.8824   -1927.9325    -59.02528     15516.06   -11588.898         0.75        0.775     0.600625   -1868.9072     15516.06 
 2737200    51006.178    201.79062    688.29357    2463.1405    3938.9259    6402.0664    6914.0692   -1913.4006    -59.02528     15514.33     -11586.8         0.75        0.775     0.600625   -1854.3753     15514.33 
 2737400    51006.178    199.37512    1593.3255    2433.6559    3939.7968    6373.4527    7558.6842   -1923.2771    -59.02528    15524.365   -11587.199         0.75        0.775     0.600625   -1864.2518    15524.365 
 2737600    51006.178    201.94903    1206.8788    2465.0741    3932.9963    6398.0704    7295.8347     -1927.44    -59.02528    15520.767   -11588.671         0.75        0.775     0.600625   -1868.4148    15520.767 
 2737800    51006.178    196.04482    1243.8045    2393.0048    3978.9293    6371.9342    7297.1665   -1904.6711    -59.02528    15521.049   -11588.346         0.75        0.775     0.600625   -1845.6459    15521.049 
 2738000    51006.178    199.52627    752.92882    2435.5009    3942.0465    6377.5474    6937.6307   -1944.5083    -59.02528    15531.435   -11586.999         0.75        0.775     0.600625    -1885.483    15531.435 
 2738200    51006.178    202.10308    894.55908    2466.9544     3975.988    6442.9424    7108.3806    -1919.628    -59.02528    15520.263   -11589.813         0.75        0.775     0.600625   -1860.6027    15520.263 
 2738400    51006.178    196.71942    1145.9222    2401.2392    3951.0228    6352.2621    7204.6824   -1914.4005    -59.02528    15509.869    -11588.01         0.75        0.775     0.600625   -1855.3752    15509.869 
 2738600    51006.178    201.83724    1240.8986    2463.7095    3915.3178    6379.0273     7302.098   -1941.8938    -59.02528    15514.724    -11588.03         0.75        0.775     0.600625   -1882.8685    15514.724 
 2738800    51006.178    201.00928    1382.3025    2453.6031    3950.0764    6403.6795    7431.9367   -1937.1084    -59.02528    15538.368   -11587.628         0.75        0.775     0.600625   -1878.0831    15538.368 
 2739000    51006.178     202.3522     1251.542    2469.9954    3902.1882    6372.1836    7303.1717    -1920.667    -59.02528    15505.803   -11589.102         0.75        0.775     0.600625   -1861.6417    15505.803 
 2739200    51006.178    193.43481    649.14341    2361.1459    3919.2421    6280.3881    6763.2682   -1934.5888    -59.02528    15531.623   -11586.565         0.75        0.775     0.600625   -1875.5635    15531.623 
 2739400    51006.178    200.21108    1081.4755    2443.8599    3951.1938    6395.0537    7199.5339   -1935.0694    -59.02528    15515.748   -11588.174         0.75        0.775     0.600625   -1876.0442    15515.748 
 2739600    51006.178    199.79553    1438.7001    2438.7876    3934.4634    6373.2509    7443.4608   -1939.9756    -59.02528    15527.796   -11587.918         0.75        0.775     0.600625   -1880.9503    15527.796 
 2739800    51006.178    196.73812    956.48998    2401.4676    3938.4758    6339.9434    7051.4503   -1928.7211    -59.02528    15495.515   -11590.111         0.75        0.775     0.600625   -1869.6958    15495.515 
 2740000    51006.178    200.29966    1474.9808    2444.9412     3995.164    6440.1052    7537.3033   -1903.0012    -59.02528    15522.796   -11589.465         0.75        0.775     0.600625   -1843.9759    15522.796 
 2740200    51006.178    200.10626    1781.5467    2442.5805    3931.8318    6374.4123    7699.6564   -1910.5832    -59.02528    15520.311   -11584.725         0.75        0.775     0.600625   -1851.5579    15520.311 
 2740400    51006.178    197.95152    1613.1478    2416.2788    3948.4677    6364.7466    7564.7233   -1942.6394    -59.02528    15530.578   -11588.024         0.75        0.775     0.600625   -1883.6141    15530.578 
 2740600    51006.178    200.02655    1398.8807    2441.6075     3951.918    6393.5255    7434.1148   -1899.8373    -59.02528    15495.924   -11588.151         0.75        0.775     0.600625    -1840.812    15495.924 
 2740800    51006.178    204.34549    771.84247    2494.3263    3945.6803    6440.0066    7014.1592   -1925.5389    -59.02528    15513.318   -11588.774         0.75        0.775     0.600625   -1866.5136    15513.318 
 2741000    51006.178    199.56472    711.22009    2435.9702    3896.1137    6332.0839    6861.1411   -1936.0128    -59.02528    15529.051   -11586.809         0.75        0.775     0.600625   -1876.9875    15529.051 
 2741200    51006.178    203.31292   -284.37498    2481.7223    3937.5964    6419.3187    6207.7799   -1962.7154    -59.02528     15523.55   -11585.702         0.75        0.775     0.600625   -1903.6901     15523.55 
 2741400    51006.178    198.67855    402.53348    2425.1532    3979.1709    6404.3241    6703.7578   -1927.7738    -59.02528    15524.384   -11585.548         0.75        0.775     0.600625   -1868.7485    15524.384 
 2741600    51006.178    200.12888    1087.2456    2442.8566    3913.3756    6356.2322    7165.0046   -1938.6073    -59.02528    15527.631   -11585.262         0.75        0.775     0.600625    -1879.582    15527.631 
 2741800    51006.178    200.73053    1586.5264    2450.2006    3924.4331    6374.6336    7554.8074   -1914.9572    -59.02528    15535.743   -11587.874         0.75        0.775     0.600625   -1855.9319    15535.743 
 2742000    51006.178    201.22237    754.66235    2456.2042    3949.6407    6405.8449    6967.2177   -1925.3381    -59.02528    15492.755   -11586.387         0.75        0.775     0.600625   -1866.3128    15492.755 
 2742200    51006.178    199.22203    853.26809    2431.7871     3905.288    6337.0752    6971.7981   -1950.9432    -59.02528    15526.088   -11588.114         0.75        0.775     0.600625   -1891.9179    15526.088 
 2742400    51006.178      202.248     1862.143    2468.7235    3930.8187    6399.5422    7784.7397   -1916.6808    -59.02528    15505.709   -11588.561         0.75        0.775     0.600625   -1857.6555    15505.709 
 2742600    51006.178    203.89102    1815.1047    2488.7788     3954.899    6443.6778    7793.8848   -1917.6297    -59.02528    15542.214     -11588.6         0.75        0.775     0.600625   -1858.6044    15542.214 
 2742800    51006.178    200.09712     1367.101    2442.4689    3978.1355    6420.6044    7437.5536   -1918.9108    -59.02528     15509.19   -11585.975         0.75        0.775     0.600625   -1859.8855     15509.19 
 2743000    51006.178    197.33578    1568.7604    2408.7628     3933.381    6342.1438     7509.102   -1906.2901    -59.02528    15512.455   -11586.759         0.75        0.775     0.600625   -1847.2648    15512.455 
 2743200    51006.178    203.43609     1437.606    2483.2258    3972.3197    6455.5455    7524.9415   -1939.6465    -59.02528    15529.267   -11586.626         0.75        0.775     0.600625   -1880.6212    15529.267 
 2743400    51006.178    201.44048    1918.9093    2458.8666    3955.7521    6414.6187    7842.0431    -1939.495    -59.02528    15504.423   -11588.251         0.75        0.775     0.600625   -1880.4697    15504.423 
 2743600    51006.178    198.20672    1991.3716    2419.3939    3942.8472    6362.2411    7843.5682   -1943.5844    -59.02528    15525.862   -11584.253         0.75        0.775     0.600625   -1884.5592    15525.862 
 2743800    51006.178    199.90233    1755.0655    2440.0912     3973.409    6413.5002    7719.0457   -1933.6066    -59.02528    15517.992   -11587.815         0.75        0.775     0.600625   -1874.5813    15517.992 
 2744000    51006.178    202.68517    1278.9598    2474.0597    4008.5686    6482.6284    7434.0118   -1917.5439    -59.02528    15518.692   -11587.329         0.75        0.775     0.600625   -1858.5186    15518.692 
 2744200    51006.178    202.33135    1116.9524    2469.7409     3913.416    6383.1569    7214.0275   -1948.6881    -59.02528     15520.74   -11590.331         0.75        0.775     0.600625   -1889.6629     15520.74 
 2744400    51006.178    198.84995    254.66451    2427.2454    3911.4432    6338.6886    6528.1266   -1936.3291    -59.02528    15512.987   -11586.538         0.75        0.775     0.600625   -1877.3038    15512.987 
 2744600    51006.178    197.46579    533.73698    2410.3498    4030.1381    6440.4879    6837.5203   -1893.3146    -59.02528    15518.217   -11587.608         0.75        0.775     0.600625   -1834.2893    15518.217 
 2744800    51006.178    202.10362    1485.8995    2466.9611    3947.8381    6414.7992    7520.1194   -1941.8522    -59.02528    15544.336    -11587.12         0.75        0.775     0.600625   -1882.8269    15544.336 
 2745000    51006.178    200.11169    1555.0933    2442.6468    3901.5345    6344.1813    7500.9729    -1954.011    -59.02528    15524.648   -11586.332         0.75        0.775     0.600625   -1894.9857    15524.648 
 2745200    51006.178    199.05718    960.29291     2429.775    3986.3457    6416.1207    7130.4565    -1918.235    -59.02528    15543.667   -11583.733         0.75        0.775     0.600625   -1859.2097    15543.667 
 2745400    51006.178     201.3396    644.70938    2457.6351    3966.7087    6424.3438    6903.9255   -1930.2843    -59.02528    15523.212    -11587.93         0.75        0.775     0.600625   -1871.2591    15523.212 
 2745600    51006.178    202.49267    560.37144      2471.71    3891.8471    6363.5571    6780.4022   -1928.1567    -59.02528    15501.254   -11589.759         0.75        0.775     0.600625   -1869.1314    15501.254 
 2745800    51006.178    193.12725    608.54055    2357.3918      3894.48    6251.8718    6704.5485   -1927.3239    -59.02528    15513.019   -11587.519         0.75        0.775     0.600625   -1868.2986    15513.019 
 2746000    51006.178    196.58962    787.43416    2399.6549    3967.2882    6366.9431    6952.6939   -1924.5551    -59.02528    15523.534   -11586.986         0.75        0.775     0.600625   -1865.5298    15523.534 
 2746200    51006.178    200.51356    1144.9294    2447.5521    3974.6761    6422.2282      7273.91   -1915.1445    -59.02528    15513.461   -11586.798         0.75        0.775     0.600625   -1856.1193    15513.461 
 2746400    51006.178    192.38605    1477.2344    2348.3444    3982.3633    6330.7077    7429.5822   -1918.4824    -59.02528    15519.616   -11585.732         0.75        0.775     0.600625   -1859.4571    15519.616 
 2746600    51006.178     202.6316    1323.4608    2473.4059    3934.8066    6408.2125     7392.699   -1938.4567    -59.02528    15500.363   -11588.331         0.75        0.775     0.600625   -1879.4314    15500.363 
 2746800    51006.178    201.25972    1508.9006    2456.6601    3958.7651    6415.4252    7537.8553   -1911.2919    -59.02528     15515.54   -11586.553         0.75        0.775     0.600625   -1852.2666     15515.54 
 2747000    51006.178    200.64578    1426.2767    2449.1661    3908.5099     6357.676    7418.6444   -1940.7532    -59.02528    15524.118   -11587.303         0.75        0.775     0.600625   -1881.7279    15524.118 
 2747200    51006.178    204.54137     1932.368    2496.7173    3965.4206    6462.1379    7899.5739   -1921.2446    -59.02528    15524.694   -11589.927         0.75        0.775     0.600625   -1862.2193    15524.694 
 2747400    51006.178    198.60565    2388.6112    2424.2634    3961.4441    6385.7075    8162.5304   -1915.7058    -59.02528    15514.655   -11584.877         0.75        0.775     0.600625   -1856.6805    15514.655 
 2747600    51006.178    196.34271    1638.4879     2396.641    3980.5824    6377.2233    7596.0499   -1923.1418    -59.02528    15535.793   -11588.908         0.75        0.775     0.600625   -1864.1165    15535.793 
 2747800    51006.178    205.68574    1009.1673    2510.6859    3960.6156    6471.3016    7221.9937   -1927.7736    -59.02528     15516.35   -11584.432         0.75        0.775     0.600625   -1868.7483     15516.35 
 2748000    51006.178    197.41356    629.30425    2409.7122      3966.01    6375.7222    6843.8445   -1891.2231    -59.02528    15507.447   -11584.964         0.75        0.775     0.600625   -1832.1978    15507.447 
 2748200    51006.178    201.30814    383.57394    2457.2511     3952.741    6409.9921    6695.3223   -1926.3328    -59.02528    15512.981   -11588.134         0.75        0.775     0.600625   -1867.3075    15512.981 
 2748400    51006.178    200.41757    1606.8407    2446.3804    3918.9217    6365.3022    7560.5872   -1919.2137    -59.02528    15508.208    -11590.69         0.75        0.775     0.600625   -1860.1884    15508.208 
 2748600    51006.178    199.78356    1829.5683    2438.6415    3894.8194    6333.4608    7694.4269   -1932.9302    -59.02528    15506.665   -11589.082         0.75        0.775     0.600625   -1873.9049    15506.665 
 2748800    51006.178    200.92624    1797.9287    2452.5895    3938.7028    6391.2924    7728.7226   -1922.5221    -59.02528    15520.352   -11586.458         0.75        0.775     0.600625   -1863.4968    15520.352 
 2749000    51006.178    196.13456    788.32247    2394.1002    3966.2102    6360.3105    6946.7221   -1922.3382    -59.02528    15506.339   -11585.229         0.75        0.775     0.600625   -1863.3129    15506.339 
 2749200    51006.178    203.07974    1433.2822     2478.876    3976.5778    6455.4538    7521.6334   -1922.2525    -59.02528    15521.693   -11586.239         0.75        0.775     0.600625   -1863.2272    15521.693 
 2749400    51006.178    198.74178    1440.6381     2425.925    3945.7739    6371.6989    7443.3504   -1913.7359    -59.02528    15509.047   -11584.267         0.75        0.775     0.600625   -1854.7107    15509.047 
 2749600    51006.178    195.17321    1540.0956    2382.3656    4016.2789    6398.6445    7544.2797   -1906.2599    -59.02528    15520.199   -11580.694         0.75        0.775     0.600625   -1847.2346    15520.199 
 2749800    51006.178    201.33457    1382.9403    2457.5738      3942.21    6399.7837    7428.5154   -1919.1569    -59.02528    15509.638   -11587.911         0.75        0.775     0.600625   -1860.1317    15509.638 
 2750000    51006.178    197.86116    1729.2096    2415.1759     3901.186    6316.3619    7602.6739    -1930.043    -59.02528    15515.918   -11588.639         0.75        0.775     0.600625   -1871.0177    15515.918 
Loop time of 10923.4 on 24 procs for 2000000 steps with 4096 atoms

Performance: 15.819 ns/day, 1.517 hours/ns, 183.093 timesteps/s
95.5% CPU use with 24 MPI tasks x no OpenMP threads

MPI task timing breakdown:
Section |  min time  |  avg time  |  max time  |%varavg| %total
---------------------------------------------------------------
Pair    | 5934.4     | 6025.2     | 6131.3     |  74.1 | 55.16
Bond    | 80.277     | 83.716     | 97.814     |  40.2 |  0.77
Kspace  | 2992.2     | 3097.8     | 3181.9     | 106.0 | 28.36
Neigh   | 196.93     | 197.46     | 197.97     |   2.2 |  1.81
Comm    | 542.82     | 561.12     | 572.26     |  36.7 |  5.14
Output  | 1.067      | 1.1454     | 2.8322     |  32.9 |  0.01
Modify  | 874.53     | 879.7      | 888.66     |  13.0 |  8.05
Other   |            | 77.19      |            |       |  0.71

Nlocal:        170.667 ave         182 max         153 min
Histogram: 1 1 0 1 2 5 8 2 2 2
Nghost:        5327.33 ave        5360 max        5297 min
Histogram: 3 2 2 1 7 2 0 1 4 2
Neighs:        78696.9 ave       84678 max       69645 min
Histogram: 1 1 0 0 4 5 6 3 2 2

Total # of neighbors = 1888726
Ave neighs/atom = 461.11475
Ave special neighs/atom = 6.0000000
Neighbor list builds = 47333
Dangerous builds = 0

write_data      data.${NAME}
write_data      data.ar
System init for write_data ...
PPPM initialization ...
  using 12-bit tables for long-range coulomb (../kspace.cpp:340)
  G vector (1/distance) = 0.2607326
  grid = 32 32 32
  stencil order = 5
  estimated absolute RMS force accuracy = 0.00041335133
  estimated relative force accuracy = 1.2447952e-06
  using double precision KISS FFT
  3d grid and FFT values/proc = 6210 2048
WARNING: Fix recenter should come after all other integration fixes (../fix_recenter.cpp:133)

write_restart   restart.${NAME}
write_restart   restart.ar
System init for write_restart ...
PPPM initialization ...
  using 12-bit tables for long-range coulomb (../kspace.cpp:340)
  G vector (1/distance) = 0.2607326
  grid = 32 32 32
  stencil order = 5
  estimated absolute RMS force accuracy = 0.00041335133
  estimated relative force accuracy = 1.2447952e-06
  using double precision KISS FFT
  3d grid and FFT values/proc = 6210 2048
WARNING: Fix recenter should come after all other integration fixes (../fix_recenter.cpp:133)






Total wall time: 3:02:06
