LAMMPS data file via write_data, version 29 Sep 2021, timestep = 2750000

4096 atoms
8 atom types
3584 bonds
6 bond types
4608 angles
8 angle types
4096 dihedrals
6 dihedral types
1536 impropers
3 improper types

0 30.167756 xlo xhi
0 38.212491 ylo yhi
0 44.2460419 zlo zhi
0 0 0 xy xz yz

Masses

1 12.01
2 12.01
3 12.01
4 16
5 1.008
6 1.008
7 0.001
8 0.001

Bond Coeffs # harmonic

1 343.1 1.088
2 547.3 1.346
3 342.5 1.088
4 354.5 1.482
5 310.7 1.112
6 637.7 1.218

Angle Coeffs # harmonic

1 49.6 119.94
2 65.5 120.42
3 38.1 116.9
4 49.5 120.45
5 46.7 114.89
6 68.8 123.2
7 46.5 116.46
8 54.2 120.7

Dihedral Coeffs # charmm

1 2.175 2 180 0
2 2.175 2 180 0
3 6.65 2 180 0
4 6.65 2 180 0
5 2.175 2 180 0
6 2.175 2 180 0

Improper Coeffs # cvff

1 10.5 -1 2
2 1.1 -1 2
3 1.1 -1 2

Atoms # full

2329 292 1 -0.38353 2.395624894102996 5.175752910460828 6.157564501052126 -3 3 3
729 92 1 -0.38353 12.536252222186787 11.910836377786206 7.955769932940167 3 -3 -2
2444 306 4 -0.488411 8.997194694745598 8.60001236101503 5.980073688569652 3 -1 2
1369 172 1 -0.38353 7.626792507789576 4.1681976208818785 8.369283775780989 -4 0 0
2228 279 4 -0.488411 7.53650268664076 4.419856441404511 1.5806591374057408 -3 -3 1
1376 172 6 0.1559 8.830277834944553 3.4340326601359186 10.02449613646114 -4 0 0
3852 482 4 -0.488411 0.7989413934619272 9.497616319686598 7.449880715285252 1 3 0
2443 306 3 0.512161 8.853034824766409 7.361922433858642 5.895942313026629 3 -1 2
2200 275 6 0.1559 5.60976396610861 12.345081493750229 3.9931660943003333 3 -3 1
2623 328 6 0.19089 3.05653923591994 12.202317934604055 6.854671817553202 2 2 -2
2511 314 6 0.19089 14.025468575502938 3.7816704103028504 3.467352054548658 2 3 0
1863 233 6 0.19089 12.709272518581686 9.150817234696945 6.386620055651919 -1 3 2
2604 326 4 -0.488411 10.351235198358966 2.196430048599996 6.725431515263644 -4 2 1
2322 291 2 -0.169515 4.280837376981461 2.9070170675605023 2.6302352824543185 0 2 1
1186 149 2 -0.169515 5.833899695826923 7.57752699748372 1.5800380572083441 2 -1 0
2446 306 6 0.19089 8.640382228452117 4.777090686548963 5.693597590606708 3 -1 2
2966 371 6 0.19089 0.5853490004887835 4.630803831988991 2.357792218032844 -2 -2 0
3045 381 5 -0.008385 9.700568332408164 2.346340294004098 4.064909169208661 -1 3 2
1858 233 2 -0.169515 14.692778305185477 8.63462788913521 7.165710789128225 -1 3 2
1374 172 6 0.19089 7.050713046142353 5.011287113740105 7.9770485436388014 -4 0 0
3291 412 3 0.512161 1.9388158217931246 7.548666725109886 0.39130758872904603 1 -3 -2
1702 213 6 0.19089 0.5317061430097245 4.28781042065939 9.648906084735094 2 2 -2
2789 349 5 -0.008385 11.746910079133725 4.2290044027358435 8.071938003548755 -3 -1 1
2512 314 6 0.1559 12.059100254394414 2.1768380954245066 3.222142479159256 2 3 0
745 94 1 -0.38353 10.845658920050985 4.572207659896932 1.3086080329347503 2 0 0
3851 482 3 0.512161 0.33617218415083894 9.030513565005743 6.42741594530703 1 3 0
748 94 4 -0.488411 14.376574678897938 4.784611644139433 0.7951657911294179 2 0 0
2327 291 6 0.19089 4.778937307027204 0.9496096051370159 1.961260470337818 0 2 1
3849 482 1 -0.38353 0.6457965785807652 7.637376261145069 4.369980200168896 1 3 0
2605 326 5 -0.008385 10.754002405168642 1.2626804931363365 8.458259640062234 -4 2 1
1091 137 3 0.512161 2.0654270152876135 0.4918615538588291 6.708010008974633 2 -1 3
140 18 4 -0.488411 14.306320416161675 8.068739112724483 10.899832487720667 -3 3 2
463 58 6 0.19089 1.1847138004304052 11.822516070486381 9.478198255864308 -1 1 -2
2509 314 5 -0.008385 14.344293840666637 0.20209167760222282 2.2610070766431054 2 3 0
3801 476 1 -0.38353 5.049136282732423 12.494762618694905 10.634356658412655 3 -1 6
2335 292 6 0.19089 1.3449552759721601 5.447107654573172 6.362549195184045 -3 3 3
2193 275 1 -0.38353 7.0617175340751865 11.771278751229799 5.457882345283958 3 -3 1
2447 306 6 0.19089 10.313823635212094 4.433561891434451 4.885326765976499 3 -1 2
1187 149 3 0.512161 6.685534465172553 7.534188037156038 2.768843068187231 2 -1 0
1015 127 6 0.19089 2.2697061192533745 9.843656571295599 3.360078339565807 2 0 -2
3701 463 5 -0.008385 5.2084800040490045 6.404533293373006 9.362710591295903 3 0 -3
750 94 6 0.19089 10.593110614442079 3.981321079526024 0.4236393907850778 2 0 0
2194 275 2 -0.169515 6.296609599781416 12.670801655249216 4.841909584615035 3 -3 1
1016 127 6 0.1559 4.800306472243184 10.095389129206964 3.0531191895462624 2 0 -2
752 94 6 0.1559 12.355933432282017 5.40810052557874 2.603575583602036 2 0 0
2619 328 3 0.512161 4.9613581212780415 9.251293852568763 6.89672911852142 2 2 -2
2445 306 5 -0.008385 8.02582136069246 6.897544617413623 6.460081807145618 3 -1 2
4051 507 3 0.512161 8.306656459914961 9.631301646817196 8.909591468184045 2 1 3
2965 371 5 -0.008385 0.9582008851709727 2.1874957752190705 1.615763341483014 -2 -2 0
1092 137 4 -0.488411 1.7932279081051234 0.9407284913482342 7.820102163886195 2 -1 3
2787 349 3 0.512161 12.373053603725378 5.137085639524686 7.760340034361191 -3 -1 1
1991 249 6 0.19089 13.282596796479867 0.526600498138858 6.208414476242112 -1 -2 1
1439 180 6 0.19089 1.7509673977967635 2.376547738937153 10.23789348461969 -3 0 2
2792 349 6 0.1559 13.780628251757651 6.576851067426306 8.718417639002075 -3 -1 1
747 94 3 0.512161 13.168750305925567 4.627239738936775 0.6141255911131631 2 0 0
2330 292 2 -0.169515 2.9378448786243236 4.274494793924492 6.981477153775791 -3 3 3
734 92 6 0.19089 12.362006492892982 11.295457769654519 7.091904740278263 3 -3 -2
1192 149 6 0.1559 4.804201818056985 7.419482651962226 1.7420180504135228 2 -1 0
2621 328 5 -0.008385 5.071350355887694 9.113115565360168 5.795797266063809 2 2 -2
2321 291 1 -0.38353 4.833069393754397 2.043651782878394 1.7940179959279718 0 2 1
3041 381 1 -0.38353 7.178289526000563 2.03579473637285 4.932248194621952 -1 3 2
2336 292 6 0.1559 2.432861949414723 3.797936948390858 7.811048550968429 -3 3 3
2790 349 6 0.19089 12.399072980654182 4.387933657531777 10.330940145743098 -3 -1 1
4053 507 5 -0.008385 7.923123895323463 8.683200155483851 8.376917956318353 2 1 3
2332 292 4 -0.488411 4.869533129298446 2.9353204207362693 7.284017840785621 -3 3 3
616 77 6 0.1559 13.40875412709529 11.021523858091085 3.96566984406298 1 0 0
610 77 2 -0.169515 13.607308008161562 12.024886140551066 4.263628125479349 1 0 0
2989 374 5 -0.008385 10.52705744041448 10.177852206992853 4.184942297546253 -1 2 -2
2992 374 6 0.1559 10.162701052688229 9.10845649053118 1.2614949138233604 -1 2 -2
1433 180 1 -0.38353 2.492451682583885 2.7643113350635176 10.963057129014446 -3 0 2
1986 249 2 -0.169515 14.374897101252508 2.248821148577346 6.907831816192813 -1 -2 1
2448 306 6 0.1559 10.760477655673888 6.735907970420521 4.800573558662709 3 -1 2
2505 314 1 -0.38353 14.150794863370109 2.7513712722384454 3.1053333161577896 2 3 0
568 71 6 0.1559 2.0012116690470956 12.541217058411284 3.730398368331864 -1 -1 -1
751 94 6 0.19089 10.057884749886163 4.836124144148203 2.004248255416467 2 0 0
3856 482 6 0.1559 2.2612244841237676 8.095977112993204 5.641631592825727 1 3 0
1399 175 6 0.19089 13.14387363328908 8.862526344134208 1.2398109797729289 0 4 -2
1857 233 1 -0.38353 13.648186046732947 8.586296048196585 6.316441631633574 -1 3 2
1394 175 2 -0.169515 12.890279466336871 10.665584445713023 0.05890313365985845 0 4 -2
2990 374 6 0.19089 8.811098588053467 11.143791096494885 2.9168017932252375 -1 2 -2
2986 374 2 -0.169515 10.071214916351098 9.678335186754806 2.1129218029439154 -1 2 -2
1375 172 6 0.19089 7.592867920362782 3.2159955810296164 7.814733997273625 -4 0 0
2785 349 1 -0.38353 13.035417982418746 5.202997779429996 10.098973106247914 -3 -1 1
1190 149 6 0.19089 7.266926069938011 8.232777270899327 0.10966769122277294 2 -1 0
457 58 1 -0.38353 1.4390062546483984 12.395045084184055 10.33985251017046 -1 1 -2
2229 279 5 -0.008385 7.742481919246884 2.646971614443281 0.5882786359247808 -3 -3 1
2991 374 6 0.19089 8.464404888326726 10.619365820495814 1.1721709956213926 -1 2 -2
2324 291 4 -0.488411 3.7340658441375623 5.152585658718955 3.1389334728305522 0 2 1
1013 127 5 -0.008385 3.8270736211334238 11.152723975853972 0.22021409297414152 2 0 -2
2323 291 3 0.512161 4.3529677240435865 4.333874403660967 2.4599043523630186 0 2 1
2331 292 3 0.512161 4.280761069645515 3.822536349270813 6.691719905330775 -3 3 3
2987 374 3 0.512161 10.887398766336224 9.570747230311376 3.3226346660037573 -1 2 -2
1009 127 1 -0.38353 2.724456672043584 10.271927450736237 2.4744520962328957 2 0 -2
3293 412 5 -0.008385 2.0161348641874297 7.422616540247724 1.4416127235958023 1 -3 -2
4050 507 2 -0.169515 9.734535609853632 9.640880987572999 9.301753748344394 2 1 3
3702 463 6 0.19089 5.98256302464956 8.489208093633188 10.33448677447159 3 0 -3
3850 482 2 -0.169515 1.1735188433417103 8.251477973239384 5.460502627174482 1 3 0
1738 218 2 -0.169515 6.56299386357592 0.22918953744466547 9.03342212675995 2 -4 -1
375 47 6 0.19089 0.310649747872305 8.632835584912435 10.72682932124314 0 -2 -2
1862 233 6 0.19089 13.773130036326709 7.832421279007522 5.483799540541505 -1 3 2
1014 127 6 0.19089 2.0564307050603703 10.62868189469976 1.6882362558631405 2 0 -2
733 92 5 -0.008385 9.893299631735411 11.780230593938416 7.226493677312834 3 -3 -2
2985 374 1 -0.38353 9.0556169521449 10.528876148312493 2.0763995436128444 -1 2 -2
3042 381 2 -0.169515 7.682367016703383 1.442942750001142 3.826221254504617 -1 3 2
2333 292 5 -0.008385 4.762960982100371 4.366396736334458 5.879885077678089 -3 3 3
2786 349 2 -0.169515 13.092222442451718 5.727190088901486 8.88591107461489 -3 -1 1
2227 279 3 0.512161 7.510488992815332 3.721279411231303 0.5507971963692335 -3 -3 1
2788 349 4 -0.488411 12.433843854077608 5.593890876789948 6.634267170190632 -3 -1 1
2334 292 6 0.19089 2.860954242806291 5.615655881074297 5.319922298888583 -3 3 3
1188 149 4 -0.488411 6.322556679805879 7.471358013993187 3.9181415303987386 2 -1 0
1434 180 2 -0.169515 3.7876897784869854 2.5842796825241225 10.637969987662839 -3 0 2
730 92 2 -0.169515 11.542620218544048 12.651301627939093 8.518507061150398 3 -3 -2
609 77 1 -0.38353 14.238283567411006 12.346366989880586 5.397138730022091 1 0 0
2618 328 2 -0.169515 4.132097135621163 10.428922803810826 7.264653370166826 2 2 -2
735 92 6 0.19089 13.57028804566523 12.099703124538587 8.27463341128762 3 -3 -2
4054 507 6 0.19089 10.31652108064089 7.925977988486631 8.244589485280928 2 1 3
1440 180 6 0.1559 4.100607571749964 2.264942786397476 9.582953086024405 -3 0 2
3700 463 4 -0.488411 3.377545240193907 5.609580919542611 9.91645774435832 3 0 -3
1093 137 5 -0.008385 1.323060431852384 0.4564233281392196 5.869830797845767 2 -1 3
3047 381 6 0.19089 6.124908083419989 1.9278683575273616 5.258361285693275 -1 3 2
2506 314 2 -0.169515 13.088783471985906 1.8749698094614962 2.970557714753293 2 3 0
2994 375 2 -0.169515 13.5352691216852 0.04175543704136083 10.494930572651354 1 -1 -2
2964 371 4 -0.488411 1.546349696534786 0.7666358692407966 2.914382705827717 -2 -2 0
2624 328 6 0.1559 4.023986496325549 10.544340844721113 8.376612084275637 2 2 -2
3698 463 2 -0.169515 4.031954488496216 7.773787668239568 10.72898595087815 3 0 -3
2094 262 6 0.19089 0.16869968029338125 12.383544905494297 6.943147748317875 3 -2 -2
4049 507 1 -0.38353 10.671054007372812 8.742557813004847 8.866271146191838 2 1 3
1010 127 2 -0.169515 4.080990350944784 10.366989427786336 2.2679176976991964 2 0 -2
3699 463 3 0.512161 4.2239866110633155 6.485921300094841 9.942416468768792 3 0 -3
1090 137 2 -0.169515 3.4718217002787535 0.27196864302858964 6.349443173181726 2 -1 3
2617 328 1 -0.38353 3.5386963844670554 11.328822911726753 6.442772831570429 2 2 -2
1096 137 6 0.1559 4.223955083195316 0.4419743491775678 7.143413595253111 2 -1 3
2442 306 2 -0.169515 9.790154533677045 6.431703203957167 5.226077796612044 3 -1 2
4055 507 6 0.19089 11.673122900930206 8.703916279820252 9.24391127620285 2 1 3
3043 381 3 0.512161 9.075588988706173 1.661202506012172 3.4098161396229254 -1 3 2
2988 374 4 -0.488411 11.939857474758682 8.925283950948975 3.4322547165110917 -1 2 -2
1701 213 5 -0.008385 0.2187326260646859 6.606511469429929 8.932735603274446 2 2 -2
3046 381 6 0.19089 7.773010371364299 2.6136989424052746 5.615483295700525 -1 3 2
1370 172 2 -0.169515 8.331979565185412 4.2962137051930025 9.522995173820014 -4 0 0
2961 371 1 -0.38353 0.5884826423710589 4.226514969606604 3.373596299317655 -2 -2 0
1185 149 1 -0.38353 6.255684572565617 7.842511190487048 0.32038065840292074 2 -1 0
3048 381 6 0.1559 7.068666979708919 0.8146281112149648 3.1634427605177184 -1 3 2
1189 149 5 -0.008385 7.776241211014133 7.694670890029433 2.563154547703882 2 -1 0
1744 218 6 0.1559 6.4558763092059515 1.262456154573589 8.81931147451247 2 -4 -1
731 92 3 0.512161 10.10698338073072 12.524634370430627 8.045141727245067 3 -3 -2
2441 306 1 -0.38353 9.540226690959015 5.110127791976411 5.157343534751274 3 -1 2
2199 275 6 0.19089 7.064283064887236 10.75120011947772 5.110290081675289 3 -3 1
2622 328 6 0.19089 3.7144230274694525 11.217904001181365 5.423837352939059 2 2 -2
3000 375 6 0.1559 12.932066226874051 0.48663264308615894 9.730562258441394 1 -1 -2
746 94 2 -0.169515 12.110105015901976 4.910102841601178 1.6343102372024358 2 0 0
2620 328 4 -0.488411 5.457089337296474 8.452397843350525 7.645268167027376 2 2 -2
2603 326 3 0.512161 10.405979882883372 1.182685490896641 7.388783953957911 -4 2 1
3697 463 1 -0.38353 5.020959622964693 8.69201321164703 10.786236288624945 3 0 -3
2326 291 6 0.19089 5.428597319755757 2.322167473909255 0.9394840126852776 0 2 1
2963 371 3 0.512161 1.173891890683896 1.877432397695517 2.6706554558631583 -2 -2 0
2328 291 6 0.1559 3.6590890364600472 2.5157176179945475 3.393611958208068 0 2 1
1992 249 6 0.1559 13.626864111830104 2.962838632142021 6.700220894940743 -1 -2 1
2198 275 6 0.19089 7.592674288690292 12.055224945071583 6.3573616114957705 3 -3 1
2325 291 5 -0.008385 4.896422343030537 4.662281967036443 1.5212664042427508 0 2 1
2791 349 6 0.19089 13.726120571295475 5.584076811745433 10.853995780144626 -3 -1 1
3044 381 4 -0.488411 9.454800540187025 1.2959287752443833 2.308710029464489 -1 3 2
615 77 6 0.19089 14.54633178829973 11.490189511925262 6.002030037419653 1 0 0
1393 175 1 -0.38353 13.433053899578637 9.419062133758679 0.26958772955972604 0 4 -2
2968 371 6 0.1559 0.9635607236277977 2.6396140672717827 4.719813131590328 -2 -2 0
4052 507 4 -0.488411 7.512138040035258 10.44869213682034 9.289687725087784 2 1 3
4056 507 6 0.1559 10.050705944416736 10.45251495482754 9.904827706477336 2 1 3
2967 371 6 0.19089 0.3506446726966681 4.94457476404618 4.226107837505135 -2 -2 0
3806 476 6 0.19089 5.196990629213565 12.173586182869363 9.6275333400652 3 -1 6
1011 127 3 0.512161 4.633107581242395 10.92476989847045 0.995588856778809 2 0 -2
1864 233 6 0.1559 14.713682406592854 9.282164504612517 8.040964685615126 -1 3 2
3855 482 6 0.19089 1.2603756408664202 7.130470291987767 3.692335012116519 1 3 0
1985 249 1 -0.38353 14.23802748644497 0.939853035936374 6.596609490337911 -1 -2 1
1012 127 4 -0.488411 5.83927582159896 11.100531605841557 0.7935630952422645 2 0 -2
2962 371 2 -0.169515 0.9296528466651055 2.950539580019003 3.688101685537073 -2 -2 0
2507 314 3 0.512161 13.290381912031886 0.5132091992220406 2.441762811207378 2 3 0
1400 175 6 0.1559 12.129691571761208 11.05619846659009 0.7300458344414674 0 4 -2
1371 172 3 0.512161 8.347324552280993 5.582732162707291 10.273227751482823 -4 0 0
1373 172 5 -0.008385 7.912170023882606 6.430166411527892 9.662785064717513 -4 0 0
462 58 6 0.19089 2.0461048522853305 11.91492152077447 11.053256688512365 -1 1 -2
3725 466 5 -0.008385 13.829336770760545 10.806336343760204 10.635518183509753 -1 2 1
3964 496 4 -0.488411 10.5727864497507 1.4973791382050363 10.976387954035488 0 4 2
653 82 5 -0.008385 3.9834804208665857 1.5440946943000373 20.939810468674743 0 -2 -2
3489 437 1 -0.38353 1.1175971243954546 2.8325337668409136 21.774478480308296 -4 -2 0
1170 147 2 -0.169515 1.072968154760787 11.00131091870752 20.931274728202652 2 -1 2
3874 485 2 -0.169515 3.908705914086801 10.293841143993449 16.55215580551044 1 -2 0
363 46 3 0.512161 1.3702800986618533 5.780172395501681 13.13953441655134 -3 2 -3
1865 234 1 -0.38353 11.859488780824774 8.31722129890377 22.045306959301975 -3 -2 3
2614 327 6 0.19089 13.306441011528161 11.33249832691799 20.07832184448925 0 1 -1
3561 446 1 -0.38353 11.88293906344482 5.935550355034537 13.628807301159666 5 -1 1
2301 288 5 -0.008385 12.248775720678854 2.5166562659437988 21.715536347990135 -1 -2 -2
437 55 5 -0.008385 11.527438261197071 12.693602015625006 19.441935590263384 4 -1 3
3720 465 6 0.1559 2.7012915017145778 12.342906305688723 13.83093830600636 1 2 2
587 74 3 0.512161 8.178090094226278 2.7964695239471635 16.4133830083301 1 1 2
867 109 3 0.512161 5.828477052091626 10.378501208306123 13.859814375066998 3 -1 3
1869 234 5 -0.008385 10.70646569278245 8.937551172767229 19.58471641891564 -3 -2 3
3391 424 6 0.19089 11.711084663622641 0.4906276834418224 20.362729760232007 -2 2 1
368 46 6 0.1559 1.217176051668093 5.4021057244124755 15.273317907137642 -3 2 -3
3562 446 2 -0.169515 11.679940415419118 7.243416687655845 13.765559941769956 5 -1 1
1627 204 3 0.512161 2.75409048334897 6.309852562664424 19.35303689301264 8 2 -2
866 109 2 -0.169515 7.087062249433524 9.620514158081106 13.855088629378123 3 -1 3
1629 204 5 -0.008385 3.358068541494842 7.217357248093587 19.038879524318823 8 2 -2
3172 397 4 -0.488411 8.436486108195156 5.5067701357330385 18.261672333625512 -1 -3 -2
3880 485 6 0.1559 3.3395952176103503 10.068353716041203 15.641426927992166 1 -2 0
367 46 6 0.19089 2.4269650858690968 7.438255859525117 15.923858061007774 -3 2 -3
3875 485 3 0.512161 5.033411864893372 9.374498835072826 16.84371954793827 1 -2 0
1632 204 6 0.1559 2.989172696561499 4.184184028523073 19.854017779658196 8 2 -2
3837 480 5 -0.008385 14.426939317186307 6.418027922601963 19.754549630617944 1 1 1
3214 402 6 0.19089 4.566632804276969 5.231283384104719 15.746258308860018 4 2 1
3907 489 3 0.512161 7.706590514619467 6.538171556322139 21.602481366053308 2 -2 -2
2303 288 6 0.19089 8.818084235164294 3.3600405580132904 20.266161018839806 -1 -2 -2
3723 466 3 0.512161 14.075873795140723 11.794368742690981 11.130353726931851 -1 2 1
115 15 3 0.512161 5.514466993183207 9.740541582657913 21.03083237046098 0 2 -2
871 109 6 0.19089 8.008253021249109 7.748072078081406 13.704683800791395 3 -1 3
969 122 1 -0.38353 14.145727881959523 10.938443254678448 15.098157296435065 -5 4 2
589 74 5 -0.008385 9.216993007424755 3.162769087807222 16.505978425972767 1 1 2
1867 234 3 0.512161 11.809958991328056 8.701192639176403 19.529375899989855 -3 -2 3
3392 424 6 0.1559 9.871788676578609 0.3606309390076486 18.606299782239358 -2 2 1
3936 492 6 0.1559 9.599165411357195 11.800716163838892 16.68352170163356 2 2 -1
3171 397 3 0.512161 8.226842100539908 6.686584707017204 17.964564684676073 -1 -3 -2
3930 492 2 -0.169515 9.080157718051575 12.207547938139886 15.815686367131043 2 2 -1
592 74 6 0.1559 6.6618676242760895 2.60747104539736 14.867052993415244 1 1 2
361 46 1 -0.38353 2.2136261961879438 7.220184204944616 14.898420026616453 -3 2 -3
3877 485 5 -0.008385 5.647318634535671 9.684802076129428 17.78108901642796 1 -2 0
3704 463 6 0.1559 3.0158835072014423 7.893465479276411 11.149773182479047 3 0 -3
3212 402 4 -0.488411 2.4751853486453217 1.9915242701679647 16.432051078228092 4 2 1
1435 180 3 0.512161 4.900039467761464 3.0502471869898367 11.522683188876895 -3 0 2
2387 299 3 0.512161 14.556671633289174 0.22842728229448953 18.939481257406754 4 0 -1
3726 466 6 0.19089 11.494551368312989 11.172414842072365 11.291246161706868 -1 2 1
3714 465 2 -0.169515 1.6671619176748713 12.093708906670834 13.617599238500084 1 2 2
3496 437 6 0.1559 0.931666909873019 0.7043642905888521 21.72608173866773 -4 -2 0
651 82 3 0.512161 4.178139039814361 0.39615969263474354 21.10143314628006 0 -2 -2
3807 476 6 0.19089 4.364742122901208 11.84408133198681 11.249739673853151 3 -1 6
362 46 2 -0.169515 1.6344157404414 6.098064612055507 14.518558238890195 -3 2 -3
975 122 6 0.19089 13.337331580745278 10.534107060038393 15.705726189540446 -5 4 2
2304 288 6 0.1559 10.358762779196278 5.038990313109112 21.21130596178894 -1 -2 -2
3715 465 3 0.512161 1.331530577549771 10.742213325166954 13.129811862903882 1 2 2
3908 489 4 -0.488411 8.506943557199882 7.404554654694143 21.1964661440706 2 -2 -2
3624 453 6 0.1559 11.033009601095895 4.913964370723484 16.085297240773674 3 2 -3
590 74 6 0.19089 8.963244039438496 4.548795561288608 14.367414370299471 1 1 2
366 46 6 0.19089 2.655511084296111 7.929124887883402 14.2157030281567 -3 2 -3
865 109 1 -0.38353 7.080501812357307 8.268026949846456 13.715001325898148 3 -1 3
1124 141 4 -0.488411 5.3612837236172135 0.45969432130822613 15.565153452458173 -1 4 -1
1626 204 2 -0.169515 3.5679462050897737 5.072302337801669 19.575254371916007 8 2 -2
1866 234 2 -0.169515 12.504083968137278 8.446103415658582 20.851423447413556 -3 -2 3
3492 437 4 -0.488411 1.126286653182495 0.4529463831645135 19.06125383127796 -4 -2 0
3568 446 6 0.1559 12.083059518756105 7.681056694305772 14.697434090534081 5 -1 1
3621 453 5 -0.008385 12.03297423746843 1.8630294863624 16.733608475121862 3 2 -3
3934 492 6 0.19089 9.210724444208237 12.447315254277749 13.689994526288269 2 2 -1
2388 299 4 -0.488411 13.828980961551819 1.2157285446315866 18.90992458051384 4 0 -1
3211 402 3 0.512161 3.070919035048629 3.0436375507359346 16.19378198300153 4 2 1
3623 453 6 0.19089 11.359549121043464 5.129926407774757 18.557602044998806 3 2 -3
204 26 4 -0.488411 0.7502865585639595 9.633033001230546 15.923296230534623 4 -1 2
1436 180 4 -0.488411 6.067463844793521 3.1456496627041783 11.204650540344728 -3 0 2
117 15 5 -0.008385 4.818658512600919 10.05758901088857 21.85696479210232 0 2 -2
3169 397 1 -0.38353 8.967181324463356 8.830772986215367 16.819185959726 -1 -3 -2
2298 288 2 -0.169515 10.618393581972846 3.96724793277618 21.199501214503517 -1 -2 -2
3567 446 6 0.19089 12.498846242075981 5.393735824843016 14.359697057878861 5 -1 1
1169 147 1 -0.38353 2.0169308056529722 10.027952688444287 20.669345748588324 2 -1 2
3493 437 5 -0.008385 1.229857119956341 2.4637023496862325 19.080070237923145 -4 -2 0
3175 397 6 0.19089 9.647903693879284 9.35340615105062 16.161756630765346 -1 -3 -2
1372 172 4 -0.488411 8.825707329915224 5.756080933789546 11.371727102606169 -4 0 0
586 74 2 -0.169515 7.566034213349928 3.1182073697468224 15.085396194106721 1 1 2
3563 446 3 0.512161 11.039602500821031 8.097579096907182 12.714090806617259 5 -1 1
3564 446 4 -0.488411 10.82634169670279 9.263407881733746 12.89683218938072 5 -1 1
3213 402 5 -0.008385 2.75888900127976 3.6938616957008232 15.322404664739851 4 2 1
1454 182 6 0.19089 14.811394663430988 2.240270105802815 14.700033408803955 2 -2 1
3216 402 6 0.1559 4.734170324749279 2.6898088401259845 17.592617649231585 4 2 1
1438 180 6 0.19089 2.2172892764181262 2.968333382930912 11.999189075579721 -3 0 2
3873 485 1 -0.38353 3.6135501350535004 11.298025875123196 17.397459543419366 1 -2 0
3173 397 5 -0.008385 7.245798639442711 7.12807672954913 18.192589701278603 -1 -3 -2
2615 327 6 0.19089 14.164584967094092 12.695410617835499 20.944157526432985 0 1 -1
3833 480 1 -0.38353 14.49970092418124 6.713554273297816 17.16574170106024 1 1 1
3617 453 1 -0.38353 11.625981108330784 4.211564189793757 17.998754787611457 3 2 -3
436 55 4 -0.488411 9.94321271918959 11.526722580602714 19.779781708493196 4 -1 3
3965 496 5 -0.008385 8.846686874677948 1.922727396759422 12.040359110618997 0 4 2
3722 466 2 -0.169515 12.987538265787398 12.620188968851766 11.639153055375962 -1 2 1
3839 480 6 0.19089 14.488659716140042 6.762773458550157 16.05813545360435 1 1 1
3491 437 3 0.512161 1.111697766686331 1.5318729314644342 19.651357102801285 -4 -2 0
2993 375 1 -0.38353 13.747095580086274 0.6170646050619634 11.698421541666432 1 -1 -2
3622 453 6 0.19089 12.043625877930715 3.3818602557882453 18.591046912839296 3 2 -3
1437 180 5 -0.008385 4.634509472064813 3.1864422226072207 12.610090077647193 -3 0 2
3879 485 6 0.19089 2.7894178488372643 11.96522426031769 17.171595862058346 1 -2 0
585 74 1 -0.38353 8.005319832312022 4.011887466595982 14.18931616527507 1 1 2
3176 397 6 0.1559 10.161548287973826 7.119453109248304 16.94041215624903 -1 -3 -2
3618 453 2 -0.169515 11.4450831443544 4.068244800386019 16.6813192280092 3 2 -3
3494 437 6 0.19089 1.3292117288116478 3.743368524371816 21.308170590492676 -4 -2 0
2297 288 1 -0.38353 9.74760245807789 3.047391486282834 20.742115605949042 -1 -2 -2
3966 496 6 0.19089 7.742587335127813 0.35391996420459243 13.540417756467429 0 4 2
1872 234 6 0.1559 13.565246984411434 8.231111167657199 20.81239558299086 -3 -2 3
3210 402 2 -0.169515 4.3795810603366725 3.4159648628604375 16.85083268618452 4 2 1
365 46 5 -0.008385 1.7837297941439665 6.53280332468906 12.441450151316777 -3 2 -3
208 26 6 0.1559 0.39195832575496603 9.115820337949184 18.40856053233444 4 -1 2
1868 234 4 -0.488411 12.394118951136402 8.777897179858275 18.45752914288505 -3 -2 3
3170 397 2 -0.169515 9.222152187789755 7.538579593987608 17.215689113149647 -1 -3 -2
869 109 5 -0.008385 4.90894421112185 9.82800599119259 13.82481734350532 3 -1 3
2999 375 6 0.19089 13.320241827711365 1.591362056808367 11.894352974800459 1 -1 -2
2998 375 6 0.19089 14.453033626827452 0.24249874620041106 12.397160559206778 1 -1 -2
435 55 3 0.512161 10.390553558412794 12.61329821511531 19.52413766426624 4 -1 3
3619 453 3 0.512161 11.78143838397432 2.767792506284076 16.018469495345162 3 2 -3
872 109 6 0.1559 7.972664234600804 10.213358002622579 13.966876371196516 3 -1 3
3490 437 2 -0.169515 1.0220255594942629 1.644767571633498 21.128934489887047 -4 -2 0
3878 485 6 0.19089 4.160379469360422 11.43104244023479 18.32669828383288 1 -2 0
3215 402 6 0.19089 6.018388883047631 4.754374516419238 16.918433749519156 4 2 1
3620 453 4 -0.488411 11.93447158003851 2.6183673003064256 14.812060798967982 3 2 -3
3721 466 1 -0.38353 11.709207905125526 12.1892668081665 11.633223332637815 -1 2 1
591 74 6 0.19089 7.493841414885055 4.145152130952691 13.256467681383683 1 1 2
2299 288 3 0.512161 12.009896591312932 3.6294713722852623 21.767672833870602 -1 -2 -2
3716 465 4 -0.488411 2.1342230787077803 9.95884360940344 12.694185526897698 1 2 2
870 109 6 0.19089 6.170742825497424 7.59881926887813 13.718803719833534 3 -1 3
3565 446 5 -0.008385 10.665994205682493 7.60457102391013 11.76739319965555 5 -1 1
114 15 2 -0.169515 6.873609633358674 10.360264410223074 21.06568697668011 0 2 -2
588 74 4 -0.488411 7.732160883164809 2.019529023645471 17.206713647830757 1 1 2
1870 234 6 0.19089 10.75068854949371 8.3845032611378 22.122129581525225 -3 -2 3
868 109 4 -0.488411 5.649833109181229 11.601048548953417 13.936455165369058 3 -1 3
2302 288 6 0.19089 9.955383615925648 1.9745464900269762 20.74770033118916 -1 -2 -2
3935 492 6 0.19089 10.611927068447372 11.554448806687114 14.630516306813142 2 2 -1
1176 147 6 0.1559 0.7744903690702041 11.712073551596589 20.16741402791533 2 -1 2
1630 204 6 0.19089 5.383918421725154 5.969195998687024 19.42325824447356 8 2 -2
3566 446 6 0.19089 11.596588667876201 5.420054796572686 12.721474702165803 5 -1 1
116 15 4 -0.488411 5.190292094195722 8.874132724509021 20.27347861746913 0 2 -2
1631 204 6 0.19089 5.449267653903839 4.213081869073742 19.897429740616836 8 2 -2
654 82 6 0.19089 6.1249892273207704 1.6994980501669075 19.719471839789584 0 -2 -2
2936 367 6 0.1559 0.43549425473843556 7.596312346164715 21.11642550644719 -5 3 3
3838 480 6 0.19089 13.52453956978411 6.315300660304254 17.547465574149562 1 1 1
364 46 4 -0.488411 0.6322920957627112 4.868832964768556 12.804042492677858 -3 2 -3
3174 397 6 0.19089 7.949501439438813 9.311131611307559 17.04546937350381 -1 -3 -2
3876 485 4 -0.488411 5.258518856076685 8.311779240348955 16.25222440552198 1 -2 0
120 15 6 0.1559 7.630873569475753 9.999035800998167 20.404806431758548 0 2 -2
3036 380 4 -0.488411 1.0633291606645077 0.47161389787895663 12.923526586480408 2 -2 2
3209 402 1 -0.38353 5.038420081774716 4.529572751807641 16.472154392397307 4 2 1
1174 147 6 0.19089 2.409423117232974 9.32415342918963 21.452013472219363 2 -1 2
1453 182 5 -0.008385 14.377840979541677 3.7814643018152556 16.6414121154159 2 -2 1
655 82 6 0.19089 7.204852885035003 0.2823941765850487 19.441605960434035 0 -2 -2
3703 463 6 0.19089 4.896594313802573 9.598509234951452 11.391969775112088 3 0 -3
3717 465 5 -0.008385 0.21375024122432293 10.470703765483258 13.09770584790147 1 2 2
3909 489 5 -0.008385 7.649376464014675 5.550158218161027 21.145091927763033 2 -2 -2
1628 204 4 -0.488411 1.5459840506565623 6.313272956783786 19.302893257732627 8 2 -2
1175 147 6 0.19089 2.500576050423079 9.915172344544478 19.670892345471685 2 -1 2
1625 204 1 -0.38353 4.907857765435256 5.065876081938025 19.527239815626835 8 2 -2
2886 361 6 0.19089 10.65891283824903 0.41472203826274395 14.853869367933646 2 -2 0
3963 496 3 0.512161 9.61167771816454 1.2048321186327073 11.712986073050892 0 4 2
2613 327 5 -0.008385 14.701851710204787 10.120189283364807 18.17228421929247 0 1 -1
2609 327 1 -0.38353 14.273745320605933 11.77016058348359 20.365889477214104 0 1 -1
974 122 6 0.19089 13.931069416513445 11.854994206746651 14.493378667604908 -5 4 2
3929 492 1 -0.38353 9.589303359949037 11.974884654210818 14.600224337034263 2 2 -1
649 82 1 -0.38353 6.294098789003109 0.629777003500608 19.912269612254327 0 -2 -2
119 15 6 0.19089 8.120952821302774 11.709812730615791 22.050413619301114 0 2 -2
113 15 1 -0.38353 7.113074843401814 11.320421790081667 21.977131997638935 0 2 -2
1743 218 6 0.19089 6.0826050226586785 0.42053092549544524 11.112598178616611 2 -4 -1
3241 406 1 -0.38353 9.34552951614132 0.6284640395301585 29.160801531609486 2 -5 0
1981 248 5 -0.008385 10.942679912085211 7.921273823682771 32.620734104634536 0 0 -5
3446 431 6 0.19089 2.873418874399622 5.528424007548592 32.2045903671169 -4 4 2
58 8 2 -0.169515 0.46861034817672204 7.8652173256099305 28.342165675477887 -2 -4 2
2503 313 6 0.19089 3.07108990921037 1.894437129800063 26.320645479531635 0 2 -2
640 80 6 0.1559 13.50122867152938 1.5829936605802126 27.012444347389177 -2 3 -4
738 93 2 -0.169515 6.075977156903759 2.7024749471223073 24.796041442785448 5 -1 1