LAMMPS data file via write_data, version 29 Sep 2021, timestep = 2900000

6144 atoms
8 atom types
3584 bonds
6 bond types
4608 angles
8 angle types
4096 dihedrals
6 dihedral types
1536 impropers
3 improper types

0 29.0995366 xlo xhi
0 37.183529 ylo yhi
0 42.95514399 zlo zhi
-0.0100591125099978 -0.0617010042405149 0.0346948157243815 xy xz yz

Masses

1 12.01
2 12.01
3 12.01
4 16
5 1.008
6 1.008
7 0.001
8 0.001

Bond Coeffs # harmonic

1 343.1 1.088
2 547.3 1.346
3 342.5 1.088
4 354.5 1.482
5 310.7 1.112
6 637.7 1.218

Angle Coeffs # harmonic

1 49.6 119.94
2 65.5 120.42
3 38.1 116.9
4 49.5 120.45
5 46.7 114.89
6 68.8 123.2
7 46.5 116.46
8 54.2 120.7

Dihedral Coeffs # charmm

1 2.175 2 180 0
2 2.175 2 180 0
3 6.65 2 180 0
4 6.65 2 180 0
5 2.175 2 180 0
6 2.175 2 180 0

Improper Coeffs # cvff

1 10.5 -1 2
2 1.1 -1 2
3 1.1 -1 2

Atoms # full

4771 0 7 0 12.076145574773905 6.469521979246578 3.838959885414106 -1 1 0
2386 299 2 -0.169515 6.151031316938392 10.098405512700602 4.1397401861741745 2 -2 0
2436 305 4 -0.488411 1.2193155107408533 1.6040605635951604 6.798450489037301 2 0 1
2171 272 3 0.512161 6.819804448875864 7.511101947292194 6.580436037826108 3 1 -1
2172 272 4 -0.488411 6.5713500562678675 8.690888064543115 6.483846895268036 3 1 -1
2394 300 2 -0.169515 6.528095316875853 1.0941594934149512 6.173189339038852 1 0 0
2390 299 6 0.19089 6.563110853705147 12.072599229932276 3.265573106249439 2 -2 0
4792 0 7 0 8.497843574930465 6.442006979261961 2.5164508853925387 -1 1 0
2428 304 4 -0.488411 2.974522260920157 7.667820955613589 7.548266539930883 -1 1 0
4776 0 7 0 10.576874574846862 11.92219997921569 4.802713885446342 -1 0 0
3637 455 5 -0.008385 5.945093878578362 1.7496754102919843 9.344867314616378 2 2 2
2865 359 1 -0.38353 14.320051263702952 3.7392956687989 2.776485554058643 1 0 1
352 44 6 0.1559 3.5727584379450454 4.687199206896981 5.603545386006869 0 3 1
1071 134 6 0.19089 4.146695890334628 6.8658067011562585 2.748199015639255 -1 0 1
2388 299 4 -0.488411 7.695713085231973 8.19378034987771 3.891311826438262 2 -2 0
4848 0 7 0 3.214695975433536 12.048921979216923 4.63530288543711 -1 0 0
2113 265 1 -0.38353 10.806773175034262 5.085341920183079 0.5423148205025003 0 -1 1
3847 481 6 0.19089 8.886338945695684 0.5252581748560983 2.6346661860835106 1 -1 2
3841 481 1 -0.38353 9.624100367421946 0.1308506064777601 1.9701240462218523 1 -1 2
5862 0 8 0 6.816622575000146 10.81319597922667 3.585778885394705 -1 0 0
2389 299 5 -0.008385 8.029482277949331 10.054486308796392 3.0133674301457027 2 -2 0
764 96 4 -0.488411 11.778118868952276 7.622212860579847 9.706431396300449 0 -1 2
2870 359 6 0.19089 14.000414838877068 2.7141881280440456 2.7841463450405732 1 0 1
4692 0 7 0 10.355790574871152 4.629555979251103 9.8686088856999 -1 1 0
2660 333 4 -0.488411 1.0538727728671309 4.449038423869219 6.681693918163059 1 1 2
2175 272 6 0.19089 5.886904241023769 4.318466605600157 5.273716270515405 3 1 -1
1375 172 6 0.19089 8.937932046272993 4.150953294085847 2.315620793190437 -2 3 1
4678 0 7 0 6.977482574977069 5.672135979250419 7.811613885798637 -1 1 0
3633 455 1 -0.38353 7.64469742403301 3.587254489540846 10.067041242730683 2 2 2
4681 0 7 0 10.521787574853528 1.9514999792497616 3.825516885412518 -1 1 0
4850 0 7 0 1.4155789736875597 8.770298979260616 5.977038885399126 0 1 0
919 115 6 0.19089 12.360530234412632 7.124959067890794 2.026379062140684 0 -1 1
345 44 1 -0.38353 3.9129414729314957 2.713823575682205 4.91778305053 0 3 1
4780 0 7 0 8.650600574958643 10.13676697924777 7.913832885790923 -1 1 0
1068 134 4 -0.488411 2.971907697578179 11.04860942356267 2.2094474500716412 -1 0 1
2646 331 6 0.19089 9.066278037736737 11.161637079940547 7.328150198214556 -1 0 1
4469 0 7 0 5.121982975154239 8.805718979265444 0.16470488581440315 -1 1 0
2169 272 1 -0.38353 6.258535462712075 5.130229777158728 6.002895985808754 3 1 -1
311 39 6 0.19089 10.931377556295532 0.20755891164707643 6.347426548650257 -1 0 -1
4714 0 7 0 14.177123574598701 2.0345419792517045 2.459242885402331 -1 1 0
2644 331 4 -0.488411 10.758955078742837 10.257305174219452 3.960788037055373 -1 0 1
2114 265 2 -0.169515 11.256132508516025 3.8744406955007267 0.17393153877276182 0 -1 1
2387 299 3 0.512161 7.4273415285966236 9.379378855379587 3.650893790717405 2 -2 0
918 115 6 0.19089 13.851922915340005 7.239009303454912 2.986739346170981 0 -1 1
3639 455 6 0.19089 8.321544333000997 4.330616266633025 10.455272671279678 2 2 2
348 44 4 -0.488411 2.4856993925118775 5.653728148432506 3.493702113499843 0 3 1
1069 134 5 -0.008385 4.66262205927841 10.186630820373066 1.373797529275713 -1 0 1
4690 0 7 0 6.923530574985849 1.8706479792568338 2.442098885395454 -1 1 0
1596 200 4 -0.488411 14.227869818085757 4.983229745533996 6.699908820749718 0 1 1
2406 301 6 0.19089 1.3451820568507533 10.377473571408558 5.2269387145248905 0 0 1
4854 0 7 0 5.245455975142068 9.205051979251618 9.820844885698127 -1 1 0
1066 134 2 -0.169515 3.51511042312044 8.800161874998471 2.6019686359325056 -1 0 1
2226 279 2 -0.169515 9.248805402423356 8.302512992995132 0.3389505781273418 1 -1 1
1600 200 6 0.1559 14.435538305527272 4.856613597108813 9.530880102601067 0 1 1
5883 0 8 0 3.254450975433276 10.8301769792238 2.7281118853842514 -1 0 0
767 96 6 0.19089 10.754892037096585 3.405742860180332 8.24574630590496 0 -1 2
1376 172 6 0.1559 9.651070502668391 2.535126562139889 4.0129916651791016 -2 3 1
2393 300 1 -0.38353 5.917232530647174 0.4550876337246261 5.164483846729059 1 0 0
4765 0 7 0 3.2647289754305135 5.543282979255563 9.079884885672707 -1 1 0
1067 134 3 0.512161 3.7019112937580365 10.157138487529775 1.9652500201723662 -1 0 1
2454 307 6 0.19089 0.14603480484076697 5.773130406659731 3.1695443115496253 0 2 1
4677 0 7 0 6.659891575019719 4.538643979246974 7.205389885802211 -1 1 0
2286 286 6 0.19089 6.883769719308599 7.945443107600667 10.322737043936424 0 2 1
4683 0 7 0 8.650570574957433 0.05785497925510579 7.023376885810563 -1 1 0
1072 134 6 0.1559 2.6853427079623065 8.71730467727808 3.3136038851083396 -1 0 1
4688 0 7 0 6.708914575019217 3.4910079792518505 0.648755885788008 -1 1 0
4778 0 7 0 8.728590574954803 8.745343979254491 5.984623885405612 -1 1 0
4676 0 7 0 6.7069055750141695 4.1004519792554985 5.9840808854085585 -1 1 0
1374 172 6 0.19089 9.60235679855333 5.553817788211772 3.3868766814479323 -2 3 1
4693 0 7 0 10.601779574840375 5.574842979248296 9.152949885676165 -1 1 0
4397 0 7 0 12.288769574806068 8.780786979258187 0.39256888581009747 -1 1 0
765 96 5 -0.008385 13.01680488899089 6.055017706118546 9.879012098519773 0 -1 2
4751 0 7 0 3.1188639754524345 3.5354379792544166 5.550154885444241 -1 1 0
308 39 4 -0.488411 14.448720220335865 1.9534197805458042 8.20174379055639 -1 0 -1
346 44 2 -0.169515 3.4833465532101586 3.969324574502252 4.764176438182451 0 3 1
4684 0 7 0 8.649020574960803 0.7878309792507963 7.890402885792996 -1 1 0
2285 286 5 -0.008385 8.081076675009648 9.907251683380368 10.130704391461592 0 2 1
2231 279 6 0.19089 10.71586749157875 9.139510234503042 1.6786707961175402 1 -1 1
5851 0 8 0 3.2370499754351547 1.3357559792497427 2.790048885380393 -1 1 0
4689 0 7 0 6.5867255750242535 3.011586979247338 1.849836885408584 -1 1 0
2642 331 2 -0.169515 9.562442087907352 9.674494135130681 5.909829283897559 -1 0 1
4702 0 7 0 14.250360574592564 5.636810979257409 7.871277885793055 -1 1 0
2174 272 6 0.19089 6.912132533091658 4.77988248203338 6.7591709397959905 3 1 -1
915 115 3 0.512161 12.529008539014066 7.797805880639785 5.428887344209027 0 -1 1
3634 455 2 -0.169515 6.504103164231024 3.8761295953977672 9.454189237639529 2 2 2
2116 265 4 -0.488411 10.878242742733955 1.5332106652417692 0.11490075397959953 0 -1 1
5870 0 8 0 14.19379557459983 10.743297979223506 3.670916885407144 -1 0 0
1373 172 5 -0.008385 11.013287321806823 5.061255565099445 5.18926443888414 -2 3 1
4756 0 7 0 1.227658973709376 1.1651099792519395 7.676840885804742 0 1 0
4843 0 7 0 5.029799975170013 6.89573397925144 3.632968885402728 -1 1 0
5855 0 8 0 3.256212975432811 6.090933979248564 8.073913885788663 -1 1 0
4777 0 7 0 10.342713574872528 11.532447979220807 3.71880988541034 -1 0 0
2432 304 6 0.1559 3.9680828613072636 7.670322843135364 10.045778963925212 -1 1 0
2283 286 3 0.512161 9.029577884307177 9.382293317949197 10.508094199142658 0 2 1
2429 304 5 -0.008385 3.935017378144539 9.465717449402922 7.470408407038731 -1 1 0
2647 331 6 0.19089 8.491933699620192 9.392863728051115 7.690639553557754 -1 0 1
5827 0 8 0 10.464261574856886 1.4778329792517302 2.772957885383472 -1 1 0
347 44 3 0.512161 2.8409389158492067 4.489539549497151 3.5299877820897554 0 3 1
761 96 1 -0.38353 11.407938972297837 4.139419511698548 8.707827303239776 0 -1 2
2398 300 6 0.19089 6.0040041866406915 0.7776673720801563 4.097340495486151 1 0 0
4864 0 7 0 1.2654049737129318 6.585427979249788 2.3425448853992186 0 1 0
2385 299 1 -0.38353 5.904736988795204 11.401670757719522 3.865469848971844 2 -2 0
4701 0 7 0 13.938997574632333 4.615026979253677 7.181665885798614 -1 1 0
4779 0 7 0 8.733655574955078 9.316121979247304 7.131629885803068 -1 1 0
5826 0 8 0 6.94100957497946 6.057130979245552 8.915883885682328 -1 1 0
762 96 2 -0.169515 11.0558125691762 5.444336244281288 8.982006255791788 0 -1 2
305 39 1 -0.38353 11.92512166111403 0.5854009292419429 6.200507543671353 -1 0 -1
1370 172 2 -0.169515 9.904295805026067 3.580709637295886 4.107776748705248 -2 3 1
312 39 6 0.1559 12.003945062977213 1.3230136521004217 8.206062099811234 -1 0 -1
4849 0 7 0 3.1771809754457205 11.436878979227329 3.6891178854024522 -1 0 0
2229 279 5 -0.008385 7.890893607579302 6.635405087373016 0.8712807133541903 1 -1 1
766 96 6 0.19089 12.457843386544326 3.839875438806189 8.898040459380157 0 -1 2
2119 265 6 0.19089 11.4612563035617 5.93407595226514 0.3808560020671432 0 -1 1
2118 265 6 0.19089 9.859828736925095 5.145411308665252 1.0129074011508332 0 -1 1
147 19 3 0.512161 5.866273132264317 2.4809071544036487 1.284498052885832 -1 -1 -1
4712 0 7 0 14.018235574626637 3.4612409792523753 0.5406488858096906 -1 1 0
5830 0 8 0 6.816892574993648 1.4428359792604126 3.524711885392361 -1 1 0
873 110 1 -0.38353 9.614349426519805 12.302372050977036 0.5604948392430442 1 -1 0
4790 0 7 0 8.699622574954422 8.018112979261295 0.6850708857837471 -1 1 0
3640 455 6 0.1559 6.193008443395761 4.909443889570979 9.307799931072832 2 2 2
2641 331 1 -0.38353 9.022905740672746 10.080116295661822 7.0537916664953855 -1 0 1
2453 307 5 -0.008385 0.019741970175915016 3.738127150232074 4.125434450097437 0 2 1
5852 0 8 0 1.38486897369007 1.5506339792446546 8.788133885690977 0 1 0
4307 0 7 0 10.379196574872202 4.114012979242985 0.21351188581534378 -1 1 0
2170 272 2 -0.169515 6.163745526889397 6.474168679139517 5.724448706549116 3 1 -1
2400 300 6 0.1559 6.341016014827699 0.7848973057125507 7.189273210702582 1 0 0
5888 0 8 0 1.3229909736979417 6.163174979249183 3.429761885385883 0 1 0
2397 300 5 -0.008385 7.502356902416922 2.668684504864514 4.855691886752173 1 0 0
5829 0 8 0 12.278705574804226 1.4093099792453236 8.10896788578822 -1 1 0
2945 369 1 -0.38353 12.229004747787867 11.331480101349728 7.727197308098497 0 0 0
5838 0 8 0 14.168028574603978 1.536381979260064 3.4978538853950805 -1 1 0
2763 346 3 0.512161 0.5785950259099608 4.146419988655076 0.11961755876158754 0 0 1
148 19 4 -0.488411 6.377425411405224 3.348195740685787 1.9388877033742662 -1 -1 -1
2230 279 6 0.19089 9.852553822135741 7.684380635496778 2.2918723449728886 1 -1 1
5857 0 8 0 12.17461557477368 6.118480979257463 2.7200698853882175 -1 1 0
2405 301 5 -0.008385 0.6757186925440503 8.506790013103537 6.723352957226341 0 0 1
3117 390 5 -0.008385 1.0486075916826627 0.34869868113113894 2.2725795043197117 3 0 2
4863 0 7 0 1.5965239736766261 7.694859979257539 1.7364178854025432 0 1 0
4786 0 7 0 6.825736574993671 11.302178979219104 2.544460885392219 -1 0 0
2392 299 6 0.1559 5.421489735985941 9.49988969751381 4.734423990939895 2 -2 0
1372 172 4 -0.488411 11.700538514271178 3.2827365312850874 5.67486930583849 -2 3 1
5860 0 8 0 8.65527857495414 10.648731979247238 8.94745788567488 -1 1 0
4713 0 7 0 14.010618574621889 2.91058997924463 1.6958698854057719 -1 1 0
763 96 3 0.512161 12.033960790203519 6.459519504074152 9.537247152418624 0 -1 2
2643 331 3 0.512161 10.212452971852823 10.662429211842799 4.993672427822046 -1 0 1
149 19 5 -0.008385 4.783467516924322 2.4681949466082553 1.2230450356143858 -1 -1 -1
4770 0 7 0 12.490081574831672 7.6536429792458005 4.4337658854396365 -1 1 0
4785 0 7 0 6.748753575004023 12.101630979218221 1.7371698854057378 -1 0 0
2427 304 3 0.512161 3.627663859303613 8.551078969821233 8.029298798250139 -1 1 0
648 81 6 0.1559 12.02191887359901 10.962540357105972 0.41706211541987026 3 2 0
4769 0 7 0 12.374443574824246 8.050381979262701 5.6722268854225755 -1 1 0
2664 333 6 0.1559 0.40511912554421253 4.297766262273143 9.352120497942833 1 1 2
2396 300 4 -0.488411 8.07362729655572 2.827893421533485 6.807482914140743 1 0 0
2245 281 5 -0.008385 1.2723237500950606 7.610112533741025 9.44418457071157 4 2 -1
350 44 6 0.19089 3.912589686314677 1.9888085065742183 4.1110282105422735 0 3 1
2951 369 6 0.19089 12.89856152270958 10.483056977690648 7.690695671132786 0 0 0
252 32 4 -0.488411 6.596383517169869 10.48613675408735 0.2939542118689462 0 1 0
4855 0 7 0 4.878016975183758 10.313483979254631 9.222740885679144 -1 1 0
5834 0 8 0 14.192244574596199 6.064551979248669 8.944352885678942 -1 1 0
2762 346 2 -0.169515 0.281865825551526 2.7918955170895563 0.6722688671268248 0 0 1
5853 0 8 0 4.93486997517519 1.4331269792484467 7.984685885793207 -1 1 0
2391 299 6 0.19089 4.94614797824473 11.77558085887694 4.232381301854987 2 -2 0
2426 304 2 -0.169515 4.235465411993381 8.499128554619908 9.374760026920034 -1 1 0
2658 333 2 -0.169515 1.4605010575158002 4.424705391039987 9.093787758799767 1 1 2
3364 421 4 -0.488411 2.2720282348745506 11.827290807240491 6.68607444386774 -1 0 1
2227 279 3 0.512161 8.157108463495291 7.332603034301064 0.054564808151035746 1 -1 1
1065 134 1 -0.38353 4.367656589898708 7.788129270475073 2.335068624801607 -1 0 1
4809 0 7 0 14.014763574620703 12.12212897922083 1.8777348854074658 -1 0 0
5885 0 8 0 4.974412975171689 10.75157897922297 8.146165885789667 -1 0 0
1253 157 5 -0.008385 6.126310922026688 11.868413058597362 6.995219636865365 -1 0 1
3636 455 4 -0.488411 4.580397053156643 2.918528905365934 8.410988190880143 2 2 2
914 115 2 -0.169515 12.032558088410157 7.474094156749899 4.068105897921442 0 -1 1
3365 421 5 -0.008385 4.265234953979663 12.14971318896968 6.531106322988834 -1 0 1
2645 331 5 -0.008385 10.163778253778053 11.739307731765544 5.266311255502932 -1 0 1
4679 0 7 0 10.36576857487213 3.434284979253211 5.700425885412858 -1 1 0
1371 172 3 0.512161 10.925939162133423 4.001557273588686 5.0880867353672 -2 3 1
3638 455 6 0.19089 7.932403924306968 2.5798938142889174 10.258023853723504 2 2 2
2173 272 5 -0.008385 7.558075446547795 7.128587768944273 7.308272740641262 3 1 -1
4791 0 7 0 8.837979574955513 7.628034979254442 1.9249108854072978 -1 1 0
5864 0 8 0 8.611125574942804 6.096290979258227 3.6350228854039575 -1 1 0
768 96 6 0.1559 10.022472167914003 5.7879004408856 8.74768179189958 0 -1 2
351 44 6 0.19089 4.317075577153942 2.392663174783763 5.8720623823299976 0 3 1
5831 0 8 0 10.541176574852603 6.071019979261928 8.119114885785772 -1 1 0
2425 304 1 -0.38353 5.068858401228207 9.518284225346799 9.726249474443012 -1 1 0
2176 272 6 0.1559 5.687115286296195 6.828755755142369 4.819079645512374 3 1 -1
4759 0 7 0 4.819187975192421 1.1019579792532694 9.118747885677958 -1 1 0
917 115 5 -0.008385 13.662374083248245 7.7201702896362985 5.546297173557475 0 -1 1
4862 0 7 0 1.524417973670983 8.172319979254103 0.5321968858105953 0 1 0
4810 0 7 0 14.172543574601013 11.174512979223321 2.6015258853878467 -1 0 0
5861 0 8 0 12.328077574807553 10.747227979226754 8.215269885788652 -1 0 0
4764 0 7 0 3.1612999754447095 4.756989979250223 9.89304188569852 -1 1 0
5881 0 8 0 4.9988049751718036 6.2943799792482436 2.6605218853921273 -1 1 0
2661 333 5 -0.008385 2.907491396969664 4.561568517386652 7.548007102828974 1 1 2
1428 179 4 -0.488411 8.555171585085137 0.7195095075109005 8.769920742260325 1 2 1
4753 0 7 0 3.4029929754131314 1.7662389792479343 3.8839458854152618 -1 1 0
3866 484 2 -0.169515 13.471303814270643 11.846857821032103 4.137024669623671 0 1 0
1070 134 6 0.19089 5.286772277940107 7.926812094155863 1.7902430480360403 -1 0 1
3872 484 6 0.1559 13.271218261494287 10.810598586669983 3.8751593275495604 0 1 0
916 115 4 -0.488411 11.832621159345337 8.295195233663009 6.2910845986903485 0 -1 1
4841 0 7 0 5.045662975166668 8.121978979247064 5.682319885414369 -1 1 0
5828 0 8 0 8.62971057495185 1.3803049792486453 8.865867885683906 -1 1 0
4087 511 6 0.19089 14.283836563222815 8.450268830904259 7.181777185270563 2 1 1
879 110 6 0.19089 9.686153520258808 12.286517542059373 1.6358330219751487 1 -1 0
2648 331 6 0.1559 9.543884858463596 8.637201868207482 5.546719413374293 -1 0 1
4687 0 7 0 12.211214574780099 0.9813139792523197 9.191954885678138 -1 1 0
4680 0 7 0 10.30338457487942 2.9023759792509662 4.532848885444806 -1 1 0
5884 0 8 0 1.3287079737020713 10.649354979244716 8.96607888567612 0 1 0
4700 0 7 0 14.003018574625484 4.137152979254965 5.9902608854021215 -1 1 0
2950 369 6 0.19089 11.340976476677119 11.2821366345371 8.360564320201126 0 0 0
4379 0 7 0 3.129501975452477 4.03274797924857 0.3462618858162856 -1 1 0
306 39 2 -0.169515 12.487124433252388 1.1994738195644323 7.239876894226398 -1 0 -1
5859 0 8 0 10.454644574856992 10.823229979223438 2.8191798853746 -1 0 0
2115 265 3 0.512161 10.48543497510357 2.6112666364264863 0.4424681545649098 0 -1 1
2435 305 3 0.512161 2.154295986997425 1.2406053908389727 7.502362084438401 2 0 1
349 44 5 -0.008385 2.6325606129768433 3.7714743255704963 2.675098091711346 0 3 1
1369 172 1 -0.38353 9.45650723976912 4.486657782642111 3.2061698849467546 -2 3 1
2284 286 4 -0.488411 10.058368088249669 9.972129645220384 10.372611096540707 0 2 1
4752 0 7 0 2.9383979754833294 3.0536699792450466 4.336718885442434 -1 1 0
3846 481 6 0.19089 10.526587848792245 0.6556641146508434 1.9372165805531285 1 -1 2
4852 0 7 0 1.2936109737041277 10.184935979250056 7.920403885791313 0 1 0
310 39 6 0.19089 12.488889134364355 0.34785841683567686 5.270683669822761 -1 0 -1
4782 0 7 0 12.517947574831854 9.222316979260222 9.928166885705645 -1 1 0
4851 0 7 0 1.4427169736816539 9.282190979247156 7.141518885804984 0 1 0
146 19 2 -0.169515 6.64528601546005 1.6131895047312312 0.3614669496627599 -1 -1 -1
2871 359 6 0.19089 13.6397806943309 4.515926809895011 3.0457998296199653 1 0 1
2768 346 6 0.1559 1.1029109844515357 2.049904172736622 0.8698758907584904 0 0 1
4783 0 7 0 12.21336657477745 10.29877497924833 9.277082885682711 -1 1 0
2333 292 5 -0.008385 0.3029084630185793 9.828550592981214 1.8275569279077692 -2 -2 2
2659 333 3 0.512161 1.8271557304026032 4.496006163105502 7.638199277390943 1 1 2
4842 0 7 0 4.998255975172156 7.457265979258444 4.600763885439396 -1 1 0
2430 304 6 0.19089 5.181976810322224 10.398710217125936 9.18879693729754 -1 1 0
2662 333 6 0.19089 3.428559372839742 4.844874895755252 9.530153918079767 1 1 2
307 39 3 0.512161 13.903657162193863 1.6215150831999092 7.164761439155902 -1 0 -1
3635 455 3 0.512161 5.603900795735313 2.7658766442028813 9.025609304971207 2 2 2
913 115 1 -0.38353 12.781420568645913 7.239911610879033 3.003612470500696 0 -1 1
2403 301 3 0.512161 0.0036877733770136513 8.140847473149181 5.918435140752855 0 0 1
2437 305 5 -0.008385 2.2452836515098866 1.5277094822380217 8.60656940841763 2 0 1
2243 281 3 0.512161 1.0015032293513444 8.328636770241317 10.196270871856704 4 2 -1
2401 301 1 -0.38353 0.6132702706931052 10.088084797278036 4.4771796814223155 0 0 1
2244 281 4 -0.488411 1.7837007762544115 9.096335126058957 10.705622318809137 4 2 -1
2657 333 1 -0.38353 2.4408443470834107 4.594859449501737 9.939439106195136 1 1 2
3118 390 6 0.19089 3.4291603158021267 0.07768630000007047 1.6617775988011845 3 0 2
152 19 6 0.1559 7.718396023932674 1.7768449887227873 0.3507191711998765 -1 -1 -1
2395 300 3 0.512161 7.368640104389176 2.324547832879743 5.911868952204291 1 0 0
920 115 6 0.1559 10.93901216014224 7.462298867353877 3.919004502588456 0 -1 1
2225 279 1 -0.38353 9.949822048601208 8.398076337702133 1.4756449520144523 1 -1 1
2281 286 1 -0.38353 7.7387163482972445 7.369535482880496 10.61165460194292 0 2 1
878 110 6 0.19089 8.885305984302823 11.635126149730999 0.1602166186165299 1 -1 0
2407 301 6 0.19089 0.5868336792275038 10.67840381398075 3.595585219656925 0 0 1
309 39 5 -0.008385 14.480488883984707 1.5553555351452202 6.2039753815507765 -1 0 -1
2117 265 5 -0.008385 9.468059952766772 2.7507756283552958 0.8652303221184674 0 -1 1
1252 157 4 -0.488411 6.17331656646174 12.276303036343815 9.002912877151688 -1 0 1
3363 421 3 0.512161 3.238460096428613 12.338650751850547 6.182835380351862 -1 0 1
2434 305 2 -0.169515 2.9585786411973745 0.0975713521550094 7.17005171630467 2 0 1
1903 238 6 0.19089 0.1940651181359775 0.05433946437407086 10.506705823759505 0 3 0
1251 157 3 0.512161 6.595693366654589 12.373540228454095 7.829706476269502 -1 0 1
2431 304 6 0.19089 5.569345550484076 9.560294171957214 10.691732299482592 -1 1 0
3434 430 2 -0.169515 12.019950448038623 1.6857551292757014 11.469793902460975 1 1 1
969 122 1 -0.38353 14.239518025447337 8.358269747702131 19.746088755347248 -1 0 1
5247 0 7 0 1.4517899736791382 7.4119119792501325 12.58508688570639 0 1 0
341 43 5 -0.008385 2.006839306524283 9.413442409516442 19.302668226472434 -1 -2 0
546 69 2 -0.169515 9.966411826133111 5.148707841285401 19.024004564503375 1 -1 0
1791 224 6 0.19089 14.43311228263129 1.8286502708625922 17.095197486453408 0 1 -1
5983 0 8 0 3.2578089754271478 6.04068297924787 18.94189988482843 -1 1 0
5169 0 7 0 6.679468575014491 12.074668979218696 12.595927885705995 -1 0 0
3437 430 5 -0.008385 11.713656595743858 3.772661514553973 11.518591840326064 1 1 1
1756 220 4 -0.488411 4.984821923044412 11.825479546183747 17.75582264423489 -1 0 0
258 33 2 -0.169515 6.3000121230986865 8.738448181299027 14.924245654477316 -1 0 -1
3139 393 3 0.512161 4.2608767014841575 2.9799398314994305 16.707653436839934 0 -1 1
3454 432 6 0.19089 12.835649479746776 10.081177328506113 17.17008007559333 0 -3 -1
2282 286 2 -0.169515 8.961592892963578 7.9415186907152835 10.771804870731968 0 2 1
3859 483 3 0.512161 1.200583664985309 8.73215029531385 13.420320524738097 1 0 2
5098 0 7 0 14.292786574586662 1.8937009792508102 13.201332885671158 -1 1 0
340 43 4 -0.488411 1.2795238513667184 11.285032607968136 18.991544603224522 -1 -2 0
1446 181 6 0.19089 4.898599562828984 10.641695969081214 21.309363078591627 0 -1 -1
2663 333 6 0.19089 2.342937247007914 4.664429630880577 10.984238967852743 1 1 2
3469 434 5 -0.008385 0.513153695017809 1.4929945680654022 12.02176658966484 1 -1 1
5148 0 7 0 2.9655859754785925 4.414423979250577 20.577649884863416 -1 1 0
5176 0 7 0 8.505523574929393 6.342763979255654 13.188211885668668 -1 1 0
2418 303 2 -0.169515 9.583598433989923 8.911100893165626 17.24717319009174 1 2 1
1082 136 2 -0.169515 1.8950101545336222 5.559499839164084 19.088324036731503 0 2 -2
569 72 1 -0.38353 2.334175625051019 10.712979285968071 15.976587670843637 1 2 -1
1759 220 6 0.19089 5.188821625666606 7.981365315736528 20.254386890764184 -1 0 0
3450 432 2 -0.169515 14.272859365083143 11.334341710538464 17.981297632895952 0 -3 -1
5097 0 7 0 13.977677574625881 2.9490059792459733 12.562099885705816 -1 1 0
5155 0 7 0 12.059326574773705 6.4083979792655485 14.668167885627264 -1 1 0
2955 370 3 0.512161 6.428090342987529 0.2761866127091725 17.350776617678406 3 2 2
4781 0 7 0 12.3990065748328 8.723650979242361 11.1088648856874 -1 1 0
3138 393 2 -0.169515 5.532239566888047 3.2907115664411384 17.39116110708769 0 -1 1
3449 432 1 -0.38353 13.776254951935577 10.627832192020733 16.958145205471357 0 -3 -1
3252 407 4 -0.488411 11.3110556517498 8.682449967097492 13.214134954726438 4 -2 0
6012 0 8 0 1.3551119736845851 10.676641979254248 19.735765884814963 0 1 0
1754 220 2 -0.169515 5.116644499398984 9.853946520296464 19.134040049966227 -1 0 0
5990 0 8 0 6.841905574993863 10.665070979258171 14.37236588562028 -1 1 0
5998 0 8 0 14.217262574594631 10.728835979232523 14.32187588561679 -1 0 0
2549 319 5 -0.008385 12.165481507872068 6.623738385671375 14.466389957857782 0 0 2
2550 319 6 0.19089 13.642361512881191 7.87462516457233 12.840441861973344 0 0 2
2152 269 6 0.1559 10.334446992906424 0.5385242724638657 13.323623836745524 1 1 0
1087 136 6 0.19089 3.9176109672160404 5.472239414150604 19.550584006997703 0 2 -2
549 69 5 -0.008385 9.41436060507561 6.55067785215455 20.53876991727474 1 -1 0
5060 0 7 0 6.712612575007512 3.999766979254345 16.811993885224375 -1 1 0
2422 303 6 0.19089 10.3164615697792 7.225427268891824 16.175106747862895 1 2 1
5167 0 7 0 12.094678574776106 10.395515979262774 20.035289884812183 -1 1 0
4763 0 7 0 3.1691849754456247 4.148746979249728 11.011135885686851 -1 1 0
3477 435 5 -0.008385 7.026231410130072 0.3106520983675938 12.263315414661685 -1 0 0
3439 430 6 0.19089 13.96598999547142 1.0314210624959723 10.875109926723145 1 1 1
3473 435 1 -0.38353 4.491795138790631 0.12700200959497238 11.638085659701886 -1 0 0
3112 389 6 0.1559 14.418453059166367 4.870262052171402 11.528716051438657 1 0 0
3480 435 6 0.1559 4.418336601960763 1.5035446901560054 13.245121949871155 -1 0 0
1081 136 1 -0.38353 2.9384350588143033 5.207026286061473 19.85331423137691 0 2 -2
3192 399 6 0.1559 1.8541902265959984 5.390054613181442 15.866310628724841 -1 -2 0
5959 0 8 0 10.48505457485558 5.99760397925725 18.871065884828322 -1 1 0
1753 220 1 -0.38353 4.600113280501447 8.730365759717788 19.680964623808187 -1 0 0
5981 0 8 0 4.97031397517127 1.2411659792418344 18.832033884823545 -1 1 0
2956 370 4 -0.488411 5.894187215131055 0.6291517906164915 18.368862953665985 3 2 2
1792 224 6 0.1559 13.675355114097407 3.900178288276204 16.279900963814832 0 1 -1
3108 389 4 -0.488411 12.925340370706635 4.376162141619055 13.558598633761077 1 0 0
1117 140 5 -0.008385 8.451764411929757 1.3704035569751498 18.3920298048651 0 1 -1
575 72 6 0.19089 2.818340708523249 9.730746806511036 16.01461029776138 1 2 -1
5064 0 7 0 10.457548574854565 2.7140739792512094 15.351052885633816 -1 1 0
6016 0 8 0 1.3406779736962242 6.039829979247588 14.388129885622925 0 1 0
1115 140 3 0.512161 9.022326135200156 0.6593067421502796 19.096555329224376 0 1 -1
3451 432 3 0.512161 13.652466760984295 11.410253467109031 19.347994978011513 0 -3 -1
5161 0 7 0 10.510047574853235 11.357679979227091 14.483592885623652 -1 0 0
5962 0 8 0 14.103800574610558 6.034690979258912 19.63533488483067 -1 1 0
2421 303 5 -0.008385 8.19517508913905 7.1380877531920275 17.36248076829624 1 2 1
2146 269 2 -0.169515 11.076201284848075 0.08686924593969723 14.008040553286975 1 1 0
3861 483 5 -0.008385 2.0502436413352485 8.408119824090218 13.956481291679392 1 0 2
636 80 4 -0.488411 5.519062506788774 3.7391551801917102 13.411621884553197 -1 0 0
2546 319 2 -0.169515 14.056303660999475 7.798502183870933 14.946911513167581 0 0 2
5246 0 7 0 1.4492569736799832 7.991690979254988 11.455463885684647 0 1 0
974 122 6 0.19089 13.703494235752217 8.099666765569072 18.83748824739118 -1 0 1
3188 399 4 -0.488411 0.9744149534472725 7.90537701942918 15.9481371532451 -1 -2 0
2424 303 6 0.1559 9.770956284729424 9.971088819297263 17.48461173530844 1 2 1
3435 430 3 0.512161 11.173905686057147 2.8572132194708564 11.618855763414384 1 1 1
3107 389 3 0.512161 14.074251428037567 4.697444342754799 13.648224621309755 1 0 0
3143 393 6 0.19089 6.401098696181458 3.7045901338169 19.260583222113198 0 -1 1
5061 0 7 0 6.612121575020619 4.476952979251758 18.01800788474455 -1 1 0
2547 319 3 0.512161 12.884718282581677 6.950695165347473 15.312357795330465 0 0 2
5072 0 7 0 6.764715575000807 3.382317979248279 11.316861885688333 -1 1 0
5135 0 7 0 3.11766597544972 3.3535039792496435 16.478228885591832 -1 1 0
338 43 2 -0.169515 0.02083055150813812 9.725950870111836 20.2030090265208 -1 -2 0
5154 0 7 0 12.51407857482971 7.664062979251107 15.1990438856346 -1 1 0
637 80 5 -0.008385 5.668050408886164 5.203662476545808 14.829427199358799 -1 0 0
342 43 6 0.19089 0.814661044183273 7.833697363523045 20.879420267138187 -1 -2 0
635 80 3 0.512161 6.110520718724636 4.622323226194308 13.954932436939238 -1 0 0
2545 319 1 -0.38353 14.309405976870144 8.152339378386015 13.661562826377185 0 0 2
5988 0 8 0 8.649194574956072 10.67918797925893 19.627126884832165 -1 1 0
5170 0 7 0 6.924904574982143 11.122957979225072 13.3118268856693 -1 0 0
261 33 5 -0.008385 4.884630633425922 8.382986860815937 13.245492031008549 -1 0 -1
5225 0 7 0 5.085854975160883 7.987601979264594 16.488855885590592 -1 1 0
3140 393 4 -0.488411 4.118240584181283 2.6960764835011917 15.513798871575645 0 -1 1
1785 224 1 -0.38353 13.355997015536364 1.9682538135749277 16.944458524536003 0 1 -1
5143 0 7 0 5.106624975157427 0.5140159792509753 19.720122884819567 -1 1 0
5992 0 8 0 8.62258757496025 5.981002979251132 14.311781885615861 -1 1 0
315 40 3 0.512161 6.179306835732572 11.671705908667768 12.177499176414901 -4 2 0
260 33 4 -0.488411 6.780757545724633 8.632929494620937 12.592819517626179 -1 0 -1
6013 0 8 0 5.0618439751607776 10.703981979242641 18.89280988482347 -1 0 0
5149 0 7 0 3.39741197540261 5.658557979264685 20.05136988481345 -1 1 0
552 69 6 0.1559 10.61747007048306 4.981963750990477 18.178963274007813 1 -1 0
5153 0 7 0 12.364730574819749 8.062038979251096 16.44733688559655 -1 1 0
2423 303 6 0.19089 11.214255193762481 8.765873305870699 15.938903454099297 1 2 1
5956 0 8 0 8.62165157495896 1.2500329792515847 19.650552884832088 -1 1 0
1749 219 5 -0.008385 3.308675877022207 0.20469038633760314 19.876005954055273 0 -1 -2
5074 0 7 0 6.8565895749852395 1.9852969792544173 13.246833885669371 -1 1 0
5226 0 7 0 5.0325499751619915 7.2933149792429575 15.427046885629505 -1 1 0
3475 435 3 0.512161 6.422258793266776 0.8168964868035399 13.04652087552563 -1 0 0
316 40 4 -0.488411 5.250585033467483 11.319513625461019 12.857053370194535 -4 2 0
5966 0 8 0 14.212966574597012 1.4449529792438998 14.272373885612883 -1 1 0
1755 220 3 0.512161 4.428440899865186 10.811516742413366 18.138883447092876 -1 0 0