variable        mytemp index 200.0
variable	dt index 1.0
variable        coeff1 equal 22.0
variable        eta equal 0.1
variable        lbdv equal 0.9
variable        lbdc equal 0.7
variable 	lbda equal 0.9

variable 	scale_gauss equal ${coeff1}*((v_lbda)^2)*((1.0-v_lbda)^3)
variable 	scale_gauss equal 22*((v_lbda)^2)*((1.0-v_lbda)^3)

if "${lbda} <= ${lbdv}" then     "variable scale_lj equal (1.0-${eta})*(-3.0*((v_lbda/${lbdv})^4)+8.0*((v_lbda/${lbdv})^3)-6.0*((v_lbda/${lbdv})^2))+1.0" else     "variable scale_lj equal ${eta}"
variable scale_lj equal (1.0-${eta})*(-3.0*((v_lbda/${lbdv})^4)+8.0*((v_lbda/${lbdv})^3)-6.0*((v_lbda/${lbdv})^2))+1.0
variable scale_lj equal (1.0-0.1)*(-3.0*((v_lbda/${lbdv})^4)+8.0*((v_lbda/${lbdv})^3)-6.0*((v_lbda/${lbdv})^2))+1.0
variable scale_lj equal (1.0-0.1)*(-3.0*((v_lbda/0.9)^4)+8.0*((v_lbda/${lbdv})^3)-6.0*((v_lbda/${lbdv})^2))+1.0
variable scale_lj equal (1.0-0.1)*(-3.0*((v_lbda/0.9)^4)+8.0*((v_lbda/0.9)^3)-6.0*((v_lbda/${lbdv})^2))+1.0
variable scale_lj equal (1.0-0.1)*(-3.0*((v_lbda/0.9)^4)+8.0*((v_lbda/0.9)^3)-6.0*((v_lbda/0.9)^2))+1.0

if "${lbda} <= ${lbdc}" then     "variable scale_coul equal (1.0-(${eta})^2)*(-3.0*((v_lbda/${lbdc})^4)+8.0*((v_lbda/${lbdc})^3)-6.0*((v_lbda/${lbdc})^2))+1.0" else     "variable scale_coul equal (${eta})^2"
variable scale_coul equal (${eta})^2
variable scale_coul equal (0.1)^2

units           real
special_bonds   lj 0.0 0.0 0.5 coul 0.0 0.0 0.8333
#neighbor        2.0 bin
#neigh_modify    delay 0 every 1 check yes page 1000000 one 20000
atom_style      full
pair_style	 hybrid/overlay lj/cut 12.0 coul/long 12.0 gauss 12.0

bond_style	 harmonic
dihedral_style	 charmm
angle_style	 harmonic
improper_style	 cvff

read_restart    restart.ar.2.900000
Reading restart file ...
  restart file = 29 Sep 2021, LAMMPS = 29 Sep 2021
  restoring atom style full from restart
  triclinic box = (0.0000000 0.0000000 0.0000000) to (29.099537 37.183529 42.955144) with tilt (-0.010059113 -0.061701004 0.034694816)
  2 by 3 by 4 MPI processor grid
  restoring pair style hybrid/overlay from restart
  restoring bond style harmonic from restart
  restoring angle style harmonic from restart
  restoring dihedral style charmm from restart
  restoring improper style cvff from restart
  6144 atoms
  3584 bonds
  4608 angles
  4096 dihedrals
  1536 impropers
Finding 1-2 1-3 1-4 neighbors ...
  special bond factors lj:    0        0        0.5     
  special bond factors coul:  0        0        0.8333  
     3 = max # of 1-2 neighbors
     4 = max # of 1-3 neighbors
     6 = max # of 1-4 neighbors
     7 = max # of special neighbors
  special bonds CPU = 0.001 seconds
  read_restart CPU = 0.072 seconds

kspace_style    pppm 1E-4
kspace_modify   mesh 32 32 32
pair_modify     mix arithmetic tail yes

timestep        ${dt}
timestep        1.0

# para obter essas coeficientes usar o comando "write_coeff file.coeff" em simulação nvt ou npt sem hybrid style
pair_coeff      * * coul/long

pair_coeff      1 7 none
pair_coeff      2 7 none
pair_coeff      3 7 none
pair_coeff      4 7 none
pair_coeff      5 7 none
pair_coeff      6 7 none
pair_coeff      7 7 none
pair_coeff      1 8 none
pair_coeff      2 8 none
pair_coeff      3 8 none
pair_coeff      4 8 none
pair_coeff      5 8 none
pair_coeff      6 8 none
pair_coeff      7 8 none
pair_coeff      8 8 none

pair_coeff      1 7 gauss 2.94 0.9 12
pair_coeff      2 7 gauss 2.94 0.9 12
pair_coeff      3 7 gauss 2.94 0.9 12
pair_coeff      4 8 gauss 2.94 0.9 12

pair_coeff 	1 1 lj/cut 0.086 3.39967 12
pair_coeff 	1 2 lj/cut 0.086 3.39967 12
pair_coeff 	1 3 lj/cut 0.086 3.39967 12
pair_coeff 	1 4 lj/cut 0.134387 3.17979 12
pair_coeff 	1 5 lj/cut 0.0359166 2.95511 12
pair_coeff 	1 6 lj/cut 0.0359166 2.99965 12
pair_coeff 	2 2 lj/cut 0.086 3.39967 12
pair_coeff 	2 3 lj/cut 0.086 3.39967 12
pair_coeff 	2 4 lj/cut 0.134387 3.17979 12
pair_coeff 	2 5 lj/cut 0.0359166 2.95511 12
pair_coeff 	2 6 lj/cut 0.0359166 2.99965 12
pair_coeff 	3 3 lj/cut 0.086 3.39967 12
pair_coeff 	3 4 lj/cut 0.134387 3.17979 12
pair_coeff 	3 5 lj/cut 0.0359166 2.95511 12
pair_coeff 	3 6 lj/cut 0.0359166 2.99965 12
pair_coeff 	4 4 lj/cut 0.21 2.95992 12
pair_coeff 	4 5 lj/cut 0.0561249 2.73523 12
pair_coeff 	4 6 lj/cut 0.0561249 2.77978 12
pair_coeff 	5 5 lj/cut 0.015 2.51055 12
pair_coeff 	5 6 lj/cut 0.015 2.55509 12
pair_coeff 	6 6 lj/cut 0.015 2.59964 12


velocity        all zero linear units box

group   	mobile type <> 1 6
4096 atoms in group mobile
group   	stat   type <> 7 8
2048 atoms in group stat

fix            1a all recenter INIT INIT INIT units box

fix            1 mobile nvt temp ${mytemp} ${mytemp} $(100.0*dt)
fix            1 mobile nvt temp 200.0 ${mytemp} $(100.0*dt)
fix            1 mobile nvt temp 200.0 200.0 $(100.0*dt)
fix            1 mobile nvt temp 200.0 200.0 100
Resetting global fix info from restart file:
  fix style: nvt, fix ID: 1
dump           1 all custom 10000 ${NAME}.lammpstrj id type x y z
dump           1 all custom 10000 ar.lammpstrj id type x y z

fix            2 mobile adapt 1 pair lj/cut epsilon 1*6 1*6 v_scale_lj scale yes
compute        lj all pair lj/cut

fix            3 mobile adapt 1 pair coul/long scale 1*6 1*6 v_scale_coul kspace v_scale_coul scale yes
compute        coul all pair coul/long

fix             4 all adapt 1 pair gauss a 1*3 7 v_scale_gauss scale yes
fix             5 all adapt 1 pair gauss a 4 8 v_scale_gauss scale yes
compute         gauss all pair gauss


thermo_style    custom step vol temp press ke pe etotal enthalpy evdwl etail ecoul elong v_lbda v_scale_lj v_scale_coul v_scale_gauss c_lj c_coul c_gauss
thermo          200

run             2000000
PPPM initialization ...
  using 12-bit tables for long-range coulomb (../kspace.cpp:340)
  G vector (1/distance) = 0.26230706
  grid = 32 32 32
  stencil order = 5
  estimated absolute RMS force accuracy = 0.00030983815
  estimated relative force accuracy = 9.3306838e-07
  using double precision KISS FFT
  3d grid and FFT values/proc = 6210 2048
All restart file global fix info was re-assigned
WARNING: Fix recenter should come after all other integration fixes (../fix_recenter.cpp:133)
Neighbor list info ...
  update every 1 steps, delay 10 steps, check yes
  max neighbors/atom: 2000, page size: 100000
  master list distance cutoff = 14
  ghost atom cutoff = 14
  binsize = 7, bins = 5 6 7
  4 neighbor lists, perpetual/occasional/extra = 4 0 0
  (1) pair lj/cut, perpetual, skip from (4)
      attributes: half, newton on
      pair build: skip
      stencil: none
      bin: none
  (2) pair coul/long, perpetual, copy from (1)
      attributes: half, newton on
      pair build: copy
      stencil: none
      bin: none
  (3) pair gauss, perpetual, skip from (4)
      attributes: half, newton on
      pair build: skip
      stencil: none
      bin: none
  (4) neighbor class addition, perpetual
      attributes: half, newton on
      pair build: half/bin/newton/tri
      stencil: half/bin/3d/tri
      bin: standard
Per MPI rank memory allocation (min/avg/max) = 13.73 | 13.77 | 13.82 Mbytes
Step Volume Temp Press KinEng PotEng TotEng Enthalpy E_vdwl E_tail E_coul E_long v_lbda v_scale_lj v_scale_coul v_scale_gauss c_lj c_coul c_gauss 
  900000    46478.474    134.17345    2866.5364    2456.8656    1911.8835    4368.7491    6311.8046   -37.049081   -8.3580946    269.81173   -191.82499          0.9          0.1         0.01      0.01782   -7.9798635    269.81173   -20.711123 
  900200    46478.474    135.46519    3220.9358    2480.5188    1966.6986    4447.2174    6630.4993   -14.921358   -8.3580946    269.59445   -191.73877          0.9          0.1         0.01      0.01782    13.999813    269.59445   -20.563076 
  900400    46478.474    130.61643    3928.4338    2391.7326    1927.8396    4319.5722    6982.4252   -21.835408   -8.3580946    269.90822   -191.62264          0.9          0.1         0.01      0.01782     6.971093    269.90822   -20.448406 
  900600    46478.474    132.85769    2970.8845    2432.7726    1970.9908    4403.7634    6417.5503   -36.467495   -8.3580946    269.67758   -191.64075          0.9          0.1         0.01      0.01782   -7.5014295    269.67758   -20.607971 
  900800    46478.474     134.4185    1979.3011    2461.3528    1966.7809    4428.1337    5769.7849   -13.678515   -8.3580946    268.94593   -191.50128          0.9          0.1         0.01      0.01782    15.318796    268.94593   -20.639216 
  901000    46478.474    131.08388     2345.068    2400.2921    1918.8859    4319.1779    5908.7609   -25.504435   -8.3580946    269.51874   -191.52648          0.9          0.1         0.01      0.01782    3.0435775    269.51874   -20.189918 
  901200    46478.474    132.73155    3079.7213    2430.4628    1961.3216    4391.7843    6479.3453   -12.036126   -8.3580946    269.21127   -191.39369          0.9          0.1         0.01      0.01782    16.352357    269.21127   -20.030388 
  901400    46478.474    133.64137     3325.891    2447.1226    1982.1529    4429.2755    6683.7003   -19.012878   -8.3580946    269.52814   -191.30451          0.9          0.1         0.01      0.01782    9.1945835    269.52814   -19.849367 
  901600    46478.474     131.0448    3553.8073    2399.5765    1927.2176    4326.7941    6735.7098   -25.589418   -8.3580946    269.74659   -191.22164          0.9          0.1         0.01      0.01782    2.6120729    269.74659   -19.843396 
  901800    46478.474    133.55084    3895.8421     2445.465    1966.6855    4412.1505    7052.9115   -29.706688   -8.3580946    269.58768   -190.93981          0.9          0.1         0.01      0.01782    -2.006451    269.58768   -19.342142 
  902000    46478.474    134.09499    4352.8309    2455.4289    1991.3233    4446.7522    7397.2789   -38.345563   -8.3580946    268.99049   -191.12787          0.9          0.1         0.01      0.01782   -11.303747    268.99049   -18.683721 
  902200    46478.474    132.28287    3575.1987    2422.2469    1956.7675    4379.0145    6802.4302   -20.344619   -8.3580946    269.45111    -191.0404          0.9          0.1         0.01      0.01782    7.0407693    269.45111   -19.027293 
  902400    46478.474    132.30107    2903.6245    2422.5803    1985.6465    4408.2267    6376.4221   -26.702717   -8.3580946    269.33945   -191.21021          0.9          0.1         0.01      0.01782    1.3467306    269.33945   -19.691353 
  902600    46478.474    132.78197      3399.75    2431.3861    2001.8196    4433.2057    6737.6952   -22.028042   -8.3580946    269.35449   -191.13683          0.9          0.1         0.01      0.01782    6.4654714    269.35449   -20.135419 
  902800    46478.474    134.63277    3578.7293    2465.2762    1931.9942    4397.2704    6823.0794   -28.367737   -8.3580946    269.39821   -191.29462          0.9          0.1         0.01      0.01782   0.32160272    269.39821   -20.331245 
  903000    46478.474    134.27577    3660.0513    2458.7392    1951.5394    4410.2786    6891.2109   -10.488673   -8.3580946    269.44991     -191.072          0.9          0.1         0.01      0.01782    18.535677    269.44991   -20.666255 
  903200    46478.474    135.91439    3233.8151    2488.7443     1978.496    4467.2402    6659.2523   -19.518413   -8.3580946    269.44076   -190.95013          0.9          0.1         0.01      0.01782    9.8541852    269.44076   -21.014504 
  903400    46478.474    130.73006    3400.7397    2393.8133    1981.7167      4375.53    6680.6904   -14.859186   -8.3580946    269.65379   -190.85336          0.9          0.1         0.01      0.01782    14.129663    269.65379   -20.630754 
  903600    46478.474    132.81168    3027.9477      2431.93    2006.5134    4438.4434    6490.9101   -25.673345   -8.3580946    269.86693   -190.80797          0.9          0.1         0.01      0.01782    3.0092439    269.86693   -20.324495 
  903800    46478.474    129.86261    2536.1444    2377.9293    1981.4602    4359.3895    6078.4918   -33.180894   -8.3580946     269.5131   -190.80367          0.9          0.1         0.01      0.01782   -4.2804455     269.5131   -20.542354 
  904000    46478.474    131.01754     3266.741    2399.0773    1956.9196     4355.997    6570.3275   -23.935414   -8.3580946    269.98548   -190.76478          0.9          0.1         0.01      0.01782    5.2417206    269.98548    -20.81904 
  904200    46478.474    135.85588    3350.7027    2487.6728    1952.7528    4440.4256    6711.6688   -28.419747   -8.3580946    269.58373   -191.02465          0.9          0.1         0.01      0.01782   0.17932666    269.58373   -20.240979 
  904400    46478.474    131.87348    3557.1481    2414.7506     1933.205    4347.9556    6759.1359   -20.867048   -8.3580946    269.40033   -190.94696          0.9          0.1         0.01      0.01782    7.0864713    269.40033   -19.595425 
  904600    46478.474    131.22914    3532.2275    2402.9519     2023.006    4425.9579    6820.2461   -18.142737   -8.3580946    269.68556   -190.84785          0.9          0.1         0.01      0.01782    9.3596156    269.68556   -19.144258 
  904800    46478.474    132.84754    4595.0745    2432.5867    1993.4289    4426.0156    7540.7448   -23.734623   -8.3580946    269.67392   -190.95171          0.9          0.1         0.01      0.01782    3.8056551    269.67392   -19.182184 
  905000    46478.474    132.09958    4627.0986    2418.8908    1952.1756    4371.0664    7507.5029   -34.602071   -8.3580946       269.13      -191.13          0.9          0.1         0.01      0.01782   -6.1526706       269.13   -20.091306 
  905200    46478.474    132.01901    3756.2095    2417.4154    1936.9875    4354.4028    6900.5151   -32.700659   -8.3580946    269.29975   -191.27295          0.9          0.1         0.01      0.01782   -4.0677025    269.29975   -20.274862 
  905400    46478.474    134.15625    4008.1227    2456.5508    1997.7456    4454.2963    7171.1657   -27.112433   -8.3580946    269.03992    -191.6733          0.9          0.1         0.01      0.01782    1.9824795    269.03992   -20.736818 
  905600    46478.474    134.87551    4030.7616    2469.7212    1892.4205    4362.1417    7094.3566   -41.760605   -8.3580946    268.94727   -191.60731          0.9          0.1         0.01      0.01782   -12.130837    268.94727   -21.271673 
  905800    46478.474    134.62337    4169.9027    2465.1041     1921.974    4387.0781    7213.6086   -31.406837   -8.3580946    268.81067   -191.65033          0.9          0.1         0.01      0.01782    -2.228163    268.81067   -20.820579 
  906000    46478.474     133.7938     3929.765    2449.9138    1990.1216    4440.0353    7103.7907   -34.267411   -8.3580946    268.83742   -191.73857          0.9          0.1         0.01      0.01782   -5.0959249    268.83742   -20.813392 
  906200    46478.474    131.58221      4515.41    2409.4172    1945.5416    4354.9588    7415.6882   -26.590629   -8.3580946    269.31105   -191.50765          0.9          0.1         0.01      0.01782    2.4053496    269.31105   -20.637884 
  906400    46478.474    133.02566    3772.9544    2435.8483    1941.2352    4377.0835    6934.5462   -28.493562   -8.3580946    270.00473    -191.4022          0.9          0.1         0.01      0.01782    1.0199755    270.00473   -21.155443 
  906600    46478.474    134.65238    3760.0052    2465.6353    1959.4275    4425.0628     6973.748   -24.595534   -8.3580946    269.18739   -191.36705          0.9          0.1         0.01      0.01782     5.311639    269.18739   -21.549079 
  906800    46478.474      133.734    3316.0542    2448.8189    1955.0579    4403.8768    6651.6338   -12.647277   -8.3580946    269.44918   -191.12353          0.9          0.1         0.01      0.01782    16.909929    269.44918   -21.199112 
  907000    46478.474    136.62935    4173.7853    2501.8358     2006.661    4508.4969    7337.6591   -16.056382   -8.3580946    269.89886    -191.0414          0.9          0.1         0.01      0.01782    13.906346    269.89886   -21.604634 
  907200    46478.474    131.52939    4131.3843      2408.45    1994.4959    4402.9459     7203.367   -18.413204   -8.3580946    270.09148   -191.03497          0.9          0.1         0.01      0.01782    11.658854    270.09148   -21.713963 
  907400    46478.474     133.2655    3402.8245    2440.2401    1955.0364    4395.2764    6701.8499   -27.186832   -8.3580946    269.50577   -191.11158          0.9          0.1         0.01      0.01782    2.0389271    269.50577   -20.867664 
  907600    46478.474    130.25798    4235.1762     2385.169    1946.7806    4331.9496    7202.7251   -22.892248   -8.3580946    269.65955   -191.22902          0.9          0.1         0.01      0.01782    6.1401059    269.65955   -20.674259 
  907800    46478.474    134.47802    4708.9877    2462.4427    1982.4302    4444.8729    7636.8173   -37.309772   -8.3580946    269.59946   -191.21408          0.9          0.1         0.01      0.01782    -7.940781    269.59946   -21.010897 
  908000    46478.474    133.42571    4507.7979    2443.1737    1944.5024    4387.6761    7443.2457   -32.754675   -8.3580946    268.98881   -191.24629          0.9          0.1         0.01      0.01782    -2.979412    268.98881   -21.417169 
  908200    46478.474    129.95574    3910.4318    2379.6347    1938.5303    4318.1649    6968.8154   -7.6722292   -8.3580946    269.53156   -191.14009          0.9          0.1         0.01      0.01782      21.2332    269.53156   -20.547335 
  908400    46478.474    133.55729    4512.7256     2445.583    1984.4447    4430.0277    7488.9375   -21.014374   -8.3580946     269.5845   -191.04403          0.9          0.1         0.01      0.01782    7.6769322     269.5845   -20.333212 
  908600    46478.474    132.22073    5782.9534    2421.1092    1990.0655    4411.1747    8331.0968   -14.615907   -8.3580946    269.24711   -191.07514          0.9          0.1         0.01      0.01782    14.086722    269.24711   -20.344535 
  908800    46478.474    128.50214    4975.1656    2353.0176    1988.2671    4341.2847    7713.6553   -11.473351   -8.3580946    269.45103   -191.12543          0.9          0.1         0.01      0.01782    16.452414    269.45103   -19.567671 
  909000    46478.474     133.8559    4340.6916     2451.051     1997.009    4448.0599    7390.3581   -12.413415   -8.3580946    269.21247   -190.85281          0.9          0.1         0.01      0.01782    15.769579    269.21247   -19.824899 
  909200    46478.474    131.62601    4232.2642    2410.2191    1963.5711    4373.7902    7242.5918   -8.5251569   -8.3580946    269.30248   -190.83373          0.9          0.1         0.01      0.01782    20.725428    269.30248    -20.89249 
  909400    46478.474    134.22036    4804.2949    2457.7246    1989.4712    4447.1958    7703.7432   -18.174286   -8.3580946    270.11951    -190.9119          0.9          0.1         0.01      0.01782    10.934468    270.11951    -20.75066 
  909600    46478.474    137.67681    3767.4627    2521.0161    2048.1214    4569.1375    7122.8776   -7.3240464   -8.3580946    269.91045   -190.91006          0.9          0.1         0.01      0.01782     21.29024    269.91045   -20.256191 
  909800    46478.474    134.39918    4394.4415    2460.9991     1989.851    4450.8501    7429.5821   -17.091212   -8.3580946    270.34498   -190.79258          0.9          0.1         0.01      0.01782    11.501199    270.34498   -20.234316 
  910000    46478.474    131.55773    5299.5648    2408.9688    1952.4264    4361.3952    7953.6568   -30.349647   -8.3580946     270.3704    -190.5967          0.9          0.1         0.01      0.01782   -1.6560901     270.3704   -20.335462 
  910200    46478.474    133.44013    4486.6695    2443.4378     1986.218    4429.6557    7470.9036   -32.269666   -8.3580946    270.08537   -190.79274          0.9          0.1         0.01      0.01782   -3.3100377    270.08537   -20.601534 
  910400    46478.474    131.63758    4726.2865     2410.431    2061.5515    4471.9825    7675.6526   -5.5638731   -8.3580946    269.81122   -191.02676          0.9          0.1         0.01      0.01782    23.323363    269.81122   -20.529142 
  910600    46478.474    132.60211    4039.2864    2428.0927    1936.2395    4364.3322    7102.3256   -28.880534   -8.3580946    269.28027   -191.19766          0.9          0.1         0.01      0.01782  -0.24940825    269.28027   -20.273032 
  910800    46478.474    134.14898    4033.7036    2456.4176     1976.714    4433.1316    7167.3407   -22.856554   -8.3580946    270.19856   -191.12056          0.9          0.1         0.01      0.01782    6.0695132    270.19856   -20.567973 
  911000    46478.474     132.7095     4050.072     2430.059    2020.2782    4450.3372    7195.6415   -2.6222861   -8.3580946    269.96521   -191.03841          0.9          0.1         0.01      0.01782    27.307989    269.96521    -21.57218 
  911200    46478.474    134.00409    3455.4868    2453.7645    1941.1542    4394.9187    6737.1888    -29.88907   -8.3580946    269.94945   -191.27421          0.9          0.1         0.01      0.01782 -0.034138113    269.94945   -21.496837 
  911400    46478.474     133.0142    4206.1647    2435.6384    1969.6633    4405.3018     7256.412   -20.781623   -8.3580946    269.92191   -191.17456          0.9          0.1         0.01      0.01782    9.3370385    269.92191   -21.760567 
  911600    46478.474    132.26848    4387.7719    2421.9836    2016.5837    4438.5673    7412.7783   -4.5378206   -8.3580946    269.90595   -191.16967          0.9          0.1         0.01      0.01782    25.877423    269.90595   -22.057149 
  911800    46478.474    134.14536    4043.5379    2456.3512     2052.615    4508.9662    7249.8414   -19.954637   -8.3580946     269.2375   -191.16278          0.9          0.1         0.01      0.01782     10.31311     269.2375   -21.909653 
  912000    46478.474    134.29878    4663.0873    2459.1606    1941.9726    4401.1332    7561.9643   -21.375708   -8.3580946    269.49001   -191.23865          0.9          0.1         0.01      0.01782    8.5264906    269.49001   -21.544104 
  912200    46478.474    133.64618    4040.1368    2447.2107    2016.3747    4463.5854    7202.1552   -16.264487   -8.3580946    269.41105    -191.2264          0.9          0.1         0.01      0.01782    13.370376    269.41105   -21.276768 
  912400    46478.474    134.32773    3562.5702    2459.6907    2011.2469    4470.9377    6885.7933   -33.572891   -8.3580946     269.6047    -191.1145          0.9          0.1         0.01      0.01782    -3.856445     269.6047   -21.358351 
  912600    46478.474    132.44702    3951.7956    2425.2527    1957.0104    4382.2631    7060.9517   -31.898531   -8.3580946    270.34652   -191.07802          0.9          0.1         0.01      0.01782   -2.0804635    270.34652   -21.459973 
  912800    46478.474    135.28424    3365.8606    2477.2054    1976.1111    4453.3165    6734.8343    -32.72117   -8.3580946    269.34844   -191.16002          0.9          0.1         0.01      0.01782   -2.8168775    269.34844   -21.546198 
  913000    46478.474    133.14702    3096.4565    2438.0706    2016.0302    4454.1008    6553.0056    -17.80805   -8.3580946    268.81722   -191.48362          0.9          0.1         0.01      0.01782    11.484572    268.81722   -20.934528 
  913200    46478.474    133.10177    3675.1857    2437.2419    1936.8258    4374.0677    6865.2588   -24.539227   -8.3580946    269.24236   -191.56204          0.9          0.1         0.01      0.01782    4.1249186    269.24236   -20.306051 
  913400    46478.474    133.47664    3357.1632    2444.1063    2027.2697    4471.3759    6746.9983   -22.389294   -8.3580946    269.69478   -191.61922          0.9          0.1         0.01      0.01782    6.4808018    269.69478   -20.512001 
  913600    46478.474    133.71717    3129.1869    2448.5106     1971.054    4419.5645    6540.6553   -20.981746   -8.3580946    270.22593    -191.5213          0.9          0.1         0.01      0.01782    7.8153384    270.22593    -20.43899 
  913800    46478.474    132.62926    3642.2641    2428.5898    1961.6788    4390.2686     6859.144   -37.637296   -8.3580946    269.94474   -191.14592          0.9          0.1         0.01      0.01782    -9.549722    269.94474   -19.729479 
  914000    46478.474    136.15525    4261.9998    2493.1546    1995.6196    4488.7742    7377.7319   -27.559767   -8.3580946    270.45939   -191.20544          0.9          0.1         0.01      0.01782   0.15836845    270.45939   -19.360041 
  914200    46478.474    133.14679    4407.4638    2438.0664    1974.7162    4412.7826    7400.3417   -26.089142   -8.3580946    270.52683   -191.36905          0.9          0.1         0.01      0.01782    2.1920487    270.52683   -19.923096 
  914400    46478.474    134.73529    3387.1387    2467.1536    1930.6913    4397.8449    6693.7859   -32.721793   -8.3580946    270.28282   -191.57958          0.9          0.1         0.01      0.01782    -3.686109    270.28282   -20.677589 
  914600    46478.474    137.75516    3818.8177    2522.4508    1970.5155    4492.9663    7081.5169   -23.627408   -8.3580946    270.35129   -191.59316          0.9          0.1         0.01      0.01782    5.7522862    270.35129   -21.021599 
  914800    46478.474    133.66691     3855.335    2447.5903     1983.926    4431.5164    7044.8199    2.4724264   -8.3580946    269.34058   -191.61663          0.9          0.1         0.01      0.01782    32.130456    269.34058   -21.299935 
  915000    46478.474    131.18495    3373.5006    2402.1429    1996.6453    4398.7882    6685.4848   -12.292942   -8.3580946    269.16518   -191.69011          0.9          0.1         0.01      0.01782    17.446779    269.16518   -21.381627 
  915200    46478.474    135.41307    4094.1958    2479.5644    1918.5869    4398.1513    7173.3645   -23.436153   -8.3580946    269.29878   -191.96446          0.9          0.1         0.01      0.01782    6.0764576    269.29878   -21.154516 
  915400    46478.474    133.86334    4702.5714    2451.1872    2004.5534    4455.7406    7643.3357   -20.602162   -8.3580946    268.86363   -191.81062          0.9          0.1         0.01      0.01782    8.7035774    268.86363   -20.947645 
  915600    46478.474    131.90081    4532.9222    2415.2511    1938.5349     4353.786    7426.3858   -34.794656   -8.3580946    269.54322   -191.38575          0.9          0.1         0.01      0.01782   -4.9567469    269.54322   -21.479815 
  915800    46478.474    134.16939      4736.16    2456.7914    1990.6216    4447.4129    7657.7757   -16.099181   -8.3580946    269.41172   -191.39415          0.9          0.1         0.01      0.01782    13.506521    269.41172   -21.247608 
  916000    46478.474    133.43481    4498.2315    2443.3402    1952.7333    4396.0736    7445.1587   -33.653022   -8.3580946    269.60591   -191.42756          0.9          0.1         0.01      0.01782   -3.4662006    269.60591   -21.828727 
  916200    46478.474    131.47946    3517.2694    2407.5356    1988.1526    4395.6882    6779.8371   -17.535861   -8.3580946    269.46281   -191.31947          0.9          0.1         0.01      0.01782    12.555887    269.46281   -21.733654 
  916400    46478.474    133.70479      2741.16     2448.284    2015.5277    4463.8118     6321.882   -1.6514793   -8.3580946    269.18495    -191.4567          0.9          0.1         0.01      0.01782    28.260777    269.18495   -21.554162 
  916600    46478.474    132.41079     2751.548    2424.5894     1976.029    4400.6184    6265.7301   -14.595092   -8.3580946    269.32176   -191.68538          0.9          0.1         0.01      0.01782     14.90342    269.32176   -21.140418 
  916800    46478.474    129.32772    3568.9651     2368.135    1939.2809    4307.4159    6726.6063   -21.404588   -8.3580946    269.19493   -191.43126          0.9          0.1         0.01      0.01782    8.0891138    269.19493   -21.135607 
  917000    46478.474    134.28665    3223.6177    2458.9384    1973.0631    4432.0015    6617.1013   -30.084865   -8.3580946    268.54294   -191.34636          0.9          0.1         0.01      0.01782  -0.39498288    268.54294   -21.331788 
  917200    46478.474    135.46847     2922.869    2480.5789    1947.6434    4428.2223    6409.4624   -34.173104   -8.3580946    269.42592   -191.28698          0.9          0.1         0.01      0.01782   -4.1060772    269.42592   -21.708932 
  917400    46478.474     131.5533    4346.0573    2408.8877    1953.3712    4362.2589    7308.1941   -25.439283   -8.3580946    270.28098   -191.04214          0.9          0.1         0.01      0.01782      4.51981    270.28098   -21.600999 
  917600    46478.474    134.39414    3851.1125    2460.9067    2002.2556    4463.1623    7073.6037   -17.947047   -8.3580946    269.98074   -190.92918          0.9          0.1         0.01      0.01782     11.42897    269.98074   -21.017923 
  917800    46478.474    133.16841    2994.5658    2438.4622    1971.5251    4409.9874    6439.8264   -21.271058   -8.3580946    269.93108   -191.17451          0.9          0.1         0.01      0.01782    9.1244673    269.93108   -22.037431 
  918000    46478.474    131.89312    3265.3751    2415.1103    1934.5438    4349.6541    6563.0587   -25.896887   -8.3580946    269.87624   -191.36526          0.9          0.1         0.01      0.01782     4.765134    269.87624   -22.303927 
  918200    46478.474    135.18535    4664.4502    2475.3946    1986.8172    4462.2118    7623.9668   -20.651186   -8.3580946    269.49166   -191.34581          0.9          0.1         0.01      0.01782    10.376734    269.49166   -22.669826 
  918400    46478.474    130.79735    4590.2578    2395.0456    1979.1306    4374.1761    7485.6404   -25.089353   -8.3580946    269.91204   -191.04141          0.9          0.1         0.01      0.01782    5.9634072    269.91204   -22.694665 
  918600    46478.474     131.8277    3385.2492    2413.9123    1991.3526    4405.2649    6699.9251   -29.895473   -8.3580946    269.89752   -191.26077          0.9          0.1         0.01      0.01782   0.83547151    269.89752    -22.37285 
  918800    46478.474    134.03144    3855.3348    2454.2652    1941.4687     4395.734    7009.0374   -22.962905   -8.3580946    270.09073   -191.02857          0.9          0.1         0.01      0.01782     7.274128    270.09073   -21.878938 
  919000    46478.474    135.25942    3697.4562    2476.7509    1975.1694    4451.9204    6958.2073   -30.824779   -8.3580946     269.7171   -191.22759          0.9          0.1         0.01      0.01782   -1.1859294     269.7171   -21.280755 
  919200    46478.474     133.0962    3526.3979      2437.14     1977.196     4414.336    6804.6726   -15.502477   -8.3580946    269.85419   -191.20246          0.9          0.1         0.01      0.01782    13.161976    269.85419   -20.306359 
  919400    46478.474    132.80287    3087.4999    2431.7689    1966.1422    4397.9111    6490.7447   -30.030684   -8.3580946    269.91568   -191.39932          0.9          0.1         0.01      0.01782  -0.81736037    269.91568   -20.855229 
  919600    46478.474    136.91023    2856.8679     2506.979    2009.8244    4516.8034    6453.3052    -25.34414   -8.3580946    269.46209   -191.63958          0.9          0.1         0.01      0.01782    4.3364264    269.46209   -21.322472 
  919800    46478.474    133.42238    3470.8582    2443.1126    1980.8676    4423.9802    6776.6697   -18.322007   -8.3580946    269.56006   -191.53106          0.9          0.1         0.01      0.01782    10.810225    269.56006   -20.774138 
  920000    46478.474    132.66195    3400.7836    2429.1884    1966.4283    4395.6167    6700.8068    -28.58081   -8.3580946    269.74071   -191.49853          0.9          0.1         0.01      0.01782    0.5044075    269.74071   -20.727123 
  920200    46478.474    131.59993     2767.524    2409.7415    1990.4614    4400.2029    6276.1437    -12.82984   -8.3580946    269.24782   -191.42073          0.9          0.1         0.01      0.01782    15.791309    269.24782   -20.263054 
  920400    46478.474     136.0191     2658.237    2490.6616    1988.4181    4479.0797    6280.9413   -30.250452   -8.3580946     268.5288   -191.62753          0.9          0.1         0.01      0.01782   -1.8972534     268.5288   -19.995104 
  920600    46478.474    132.47036    3205.5921    2425.6802    1950.6089    4376.2891    6549.1704   -32.606032   -8.3580946    268.80013   -191.51291          0.9          0.1         0.01      0.01782   -3.9335149    268.80013   -20.314423 
  920800    46478.474    132.25918    3669.4034    2421.8131    2000.9533    4422.7664     6910.038   -10.973586   -8.3580946    268.96624   -191.50487          0.9          0.1         0.01      0.01782    17.598095    268.96624   -20.213586 
  921000    46478.474    131.92888     3067.769    2415.7651    2035.8177    4451.5828     6531.042   -20.340997   -8.3580946    269.09839   -191.53558          0.9          0.1         0.01      0.01782    8.4200146    269.09839   -20.402917 
  921200    46478.474    131.88645    3693.1146     2414.988    1989.8817    4404.8697    6908.2138   -10.899221   -8.3580946    269.52864   -191.41166          0.9          0.1         0.01      0.01782    17.855128    269.52864   -20.396255 
  921400    46478.474    133.89763    4701.6324    2451.8151    1984.0143    4435.8294     7622.788   -25.219669   -8.3580946    269.43791   -191.15851          0.9          0.1         0.01      0.01782    3.7219006    269.43791   -20.583475 
  921600    46478.474    134.78942    4839.3158    2468.1447    1969.5161    4437.6608    7717.9468   -21.552578   -8.3580946    269.85613    -191.0194          0.9          0.1         0.01      0.01782    7.3493808    269.85613   -20.543864 
  921800    46478.474    132.94667    4613.4065    2434.4019    1928.9595    4363.3615    7490.5169   -21.457946   -8.3580946    269.38854   -191.12413          0.9          0.1         0.01      0.01782    7.7813172    269.38854   -20.881169 
  922000    46478.474    135.42351    4633.1071    2479.7556    1981.8902    4461.6458    7602.1551   -28.384899   -8.3580946    269.34514   -191.35578          0.9          0.1         0.01      0.01782   0.91976989    269.34514   -20.946574 
  922200    46478.474    129.62406    4438.7514    2373.5611    1965.1094    4338.6705    7347.4376   -30.071351   -8.3580946    269.67966   -191.43547          0.9          0.1         0.01      0.01782   -1.2197145    269.67966   -20.493542 
  922400    46478.474    132.66359      3589.19    2429.2184    1988.6579    4417.8763    6850.7759   -11.630464   -8.3580946    269.23427   -191.49991          0.9          0.1         0.01      0.01782    17.526388    269.23427   -20.798758 
  922600    46478.474    135.13118    3732.4287    2474.4027    1957.8428    4432.2454    6962.2381   -14.896347   -8.3580946    268.89186   -191.68178          0.9          0.1         0.01      0.01782    14.103565    268.89186   -20.641817 
  922800    46478.474    131.37967    4604.7477    2405.7085    1939.0339    4344.7423    7466.0285   -30.371941   -8.3580946     268.6134   -191.72766          0.9          0.1         0.01      0.01782   -1.6171207     268.6134   -20.396726 
  923000    46478.474    133.00617    4257.5741    2435.4914    1959.5654    4395.0568    7281.0146   -8.5469378   -8.3580946    269.00689   -191.72654          0.9          0.1         0.01      0.01782    20.053554    269.00689   -20.242397 
  923200    46478.474    134.87599    3701.7688    2469.7299    1974.4667    4444.1966    6953.4067   -14.353121   -8.3580946     268.5351   -191.84426          0.9          0.1         0.01      0.01782    14.032803     268.5351    -20.02783 
  923400    46478.474    129.35898    3411.7945    2368.7073    1972.6865    4341.3937    6654.0474   -20.986924   -8.3580946    268.24797   -191.53735          0.9          0.1         0.01      0.01782     7.842369    268.24797   -20.471198 
  923600    46478.474    133.75272    4116.6947    2449.1615    1965.4085      4414.57    7205.0339   -33.727663   -8.3580946    269.16551   -191.60458          0.9          0.1         0.01      0.01782   -4.8484426    269.16551   -20.521126 
  923800    46478.474    135.96933    3964.9417    2489.7502    1937.0332    4426.7834    7114.3829   -19.776093   -8.3580946    269.23846    -191.3929          0.9          0.1         0.01      0.01782    9.1246709    269.23846   -20.542669 
  924000    46478.474    134.16524    3076.0847    2456.7153    1945.1599    4401.8752    6486.9711   -31.476708   -8.3580946    268.87524   -191.47437          0.9          0.1         0.01      0.01782   -1.9563454    268.87524   -21.162268 
  924200    46478.474    132.87188    3763.3911    2433.0325    1952.3243    4385.3568     6936.337    -18.54399   -8.3580946    269.10124    -191.5916          0.9          0.1         0.01      0.01782    10.519881    269.10124   -20.705776 
  924400    46478.474    134.69916    3758.8638    2466.4919    2005.5258    4472.0177    7019.9292   -5.8360484   -8.3580946    269.18298   -191.53972          0.9          0.1         0.01      0.01782    22.637234    269.18298   -20.115188 
  924600    46478.474    130.40507    3631.2473    2387.8624    2009.2202    4397.0826    6858.4904   -12.763569   -8.3580946    268.89635   -191.49042          0.9          0.1         0.01      0.01782    15.622018    268.89635   -20.027492 
  924800    46478.474    132.41504    3367.4193    2424.6671    1967.4231    4392.0902    6674.6646   -24.082885   -8.3580946    268.62094    -191.5325          0.9          0.1         0.01      0.01782    4.5347649    268.62094   -20.259555 
  925000    46478.474    135.20851    3133.3311    2475.8188    1966.2938    4442.1126    6566.0125    -23.27159   -8.3580946    268.99366   -191.56296          0.9          0.1         0.01      0.01782    5.8994458    268.99366   -20.812942 
  925200    46478.474    131.78213    4271.2861     2413.078    1978.6896    4391.7676    7287.0198   -16.120695   -8.3580946    268.88025   -191.29099          0.9          0.1         0.01      0.01782    13.284964    268.88025   -21.047565 
  925400    46478.474    132.46816    4449.8103    2425.6399    1971.6801      4397.32    7413.5833   -24.186413   -8.3580946    268.54345   -191.29515          0.9          0.1         0.01      0.01782    5.8404128    268.54345   -21.668731 
  925600    46478.474    135.45032    4248.8165    2480.2465    1986.7395    4466.9859    7347.0074   -12.516362   -8.3580946    268.67274   -191.29043          0.9          0.1         0.01      0.01782    17.195999    268.67274   -21.354266 
  925800    46478.474    131.44124    3674.1376    2406.8359    1941.0849    4347.9208    6838.4013   -22.795322   -8.3580946     268.8686    -191.1499          0.9          0.1         0.01      0.01782    7.0731005     268.8686   -21.510328 
  926000    46478.474    133.84943    4101.3436    2450.9325    1989.7422    4440.6747     7220.733   -13.300534   -8.3580946      269.591   -191.24312          0.9          0.1         0.01      0.01782    15.920867      269.591   -20.863306 
  926200    46478.474    131.55125    3125.5207    2408.8501    1983.5948     4392.445    6511.0507   -13.137632   -8.3580946    269.21172   -191.43145          0.9          0.1         0.01      0.01782    15.539759    269.21172   -20.319297 
  926400    46478.474    132.53464    2982.9341    2426.8573    1974.9242    4401.7815    6423.7361   -9.3551633   -8.3580946    269.00022    -191.5924          0.9          0.1         0.01      0.01782    19.363382    269.00022   -20.360451 
  926600    46478.474    135.47539    4646.1149    2480.7055    1961.1514    4441.8569    7591.1835   -18.131211   -8.3580946     269.4774   -191.38562          0.9          0.1         0.01      0.01782    10.464456     269.4774   -20.237572 
  926800    46478.474    133.08887     4040.921    2437.0057    1920.4612    4357.4669    7096.5683     -7.64001   -8.3580946    269.42944   -191.47583          0.9          0.1         0.01      0.01782    20.697143    269.42944   -19.979058 
  927000    46478.474    132.99964    3161.4109    2435.3719    2018.9928    4454.3647    6597.2982   -4.8439704   -8.3580946      269.332   -191.56481          0.9          0.1         0.01      0.01782    23.854602      269.332   -20.340478 
  927200    46478.474    135.17119    3581.6462    2475.1353    1942.8719    4418.0072    6845.7934   -16.159134   -8.3580946    268.92751   -191.73314          0.9          0.1         0.01      0.01782    12.420419    268.92751   -20.221458 
  927400    46478.474    134.25722    2965.1345    2458.3996    1929.4721    4387.8717    6397.7611    -31.39733   -8.3580946    269.45036   -191.68553          0.9          0.1         0.01      0.01782   -3.0927801    269.45036   -19.946456 
  927600    46478.474    131.01205    2622.8159    2398.9768    1917.0471    4316.0238    6093.8756   -13.295308   -8.3580946    269.41894   -191.68361          0.9          0.1         0.01      0.01782    15.555041    269.41894   -20.492254 
  927800    46478.474    134.51984    2987.8265    2463.2085    1951.3609    4414.5693    6439.8402   -17.149531   -8.3580946    269.25496   -191.84193          0.9          0.1         0.01      0.01782    11.820967    269.25496   -20.612403 
  928000    46478.474    133.65989    3975.5965    2447.4618     1955.389    4402.8507    7097.6725   -18.402231   -8.3580946    269.41375   -191.52288          0.9          0.1         0.01      0.01782    11.216727    269.41375   -21.260864 
  928200    46478.474    130.27749    3951.7944    2385.5262    1910.3267    4295.8529    6974.5407   -21.859203   -8.3580946     269.6819   -191.63642          0.9          0.1         0.01      0.01782    7.9041534     269.6819   -21.405261 
  928400    46478.474      132.763    3552.1705    2431.0387    1982.2556    4413.2943    6821.1006   -14.500528   -8.3580946    269.92113   -191.58108          0.9          0.1         0.01      0.01782    14.726509    269.92113   -20.868943 
  928600    46478.474     136.0059    3778.4213    2490.4198    1955.2001    4445.6199    7006.7883   -12.365754   -8.3580946    269.71818   -191.49293          0.9          0.1         0.01      0.01782    16.871075    269.71818   -20.878735 
  928800    46478.474    132.91251    4398.3298    2433.7765    1940.7997    4374.5762    7355.9439   -3.3287698   -8.3580946    270.51486   -191.36701          0.9          0.1         0.01      0.01782    26.292109    270.51486   -21.262784 
  929000    46478.474    133.70518    4110.4015    2448.2911    1975.9958    4424.2869    7210.4851   -18.897011   -8.3580946    270.55059   -191.26611          0.9          0.1         0.01      0.01782    11.512813    270.55059    -22.05173 
  929200    46478.474    136.42869    4003.3958    2498.1616    1944.3499    4442.5115    7156.1768   -10.906458   -8.3580946    269.64261   -191.37493          0.9          0.1         0.01      0.01782    19.693976    269.64261    -22.24234 
  929400    46478.474    135.42241    4377.5319    2479.7354       1888.9    4368.6354    7335.9055    -17.54329   -8.3580946    270.11644   -191.50584          0.9          0.1         0.01      0.01782    13.067453    270.11644   -22.252648 
  929600    46478.474    133.31855     4241.875    2441.2115    1981.7863    4422.9978     7298.314   -7.0232329   -8.3580946    269.24319   -191.72066          0.9          0.1         0.01      0.01782    23.411454    269.24319   -22.076593 
  929800    46478.474    136.74549    3455.2618    2503.9625     1976.794    4480.7564    6822.8741   -15.053687   -8.3580946    268.61372   -191.52491          0.9          0.1         0.01      0.01782    15.196291    268.61372   -21.891884 
  930000    46478.474    133.73535    3684.7335    2448.8434    1947.0738    4395.9173    6893.5802    -22.73319   -8.3580946    269.29895   -191.75558          0.9          0.1         0.01      0.01782    7.4724912    269.29895   -21.847587 
  930200    46478.474    133.81691    4981.9805    2450.3371    1914.2962    4364.6333    7741.6233   -16.001816   -8.3580946    268.96154    -191.6454          0.9          0.1         0.01      0.01782    14.346374    268.96154   -21.990095 
  930400    46478.474    134.08926    5066.4869     2455.324    2000.5745    4455.8985    7890.1703   -1.4790919   -8.3580946    268.70158   -191.77845          0.9          0.1         0.01      0.01782    28.111477    268.70158   -21.232474 
  930600    46478.474    133.77374    4322.2891    2449.5464    1960.0153    4409.5618    7339.3859   -21.520073   -8.3580946    268.91528   -191.62661          0.9          0.1         0.01      0.01782    8.0233329    268.91528   -21.185311 
  930800    46478.474     132.9878    4140.6583     2435.155    1947.7825    4382.9375    7189.6449   -19.206495   -8.3580946    269.25003    -191.5654          0.9          0.1         0.01      0.01782     10.52522    269.25003    -21.37362 
  931000    46478.474    136.25516    3761.6323     2494.984    1944.8014    4439.7854    6989.5735   -25.348753   -8.3580946    269.33111   -191.44498          0.9          0.1         0.01      0.01782    4.3395224    269.33111    -21.33018 
  931200    46478.474    132.47661    3737.6326    2425.7945    1916.6447    4342.4392    6875.9593   -24.886099   -8.3580946    269.56351   -191.33229          0.9          0.1         0.01      0.01782     5.162765    269.56351   -21.690769 
  931400    46478.474    133.38562    3707.9955    2442.4395    1974.7057    4417.1453    6930.5761   -6.2490784   -8.3580946    269.38749   -191.52723          0.9          0.1         0.01      0.01782    23.937264    269.38749   -21.828248 
  931600    46478.474    135.61284    4017.1533    2483.2225    1943.0262    4426.2487    7149.2394   -5.8906252   -8.3580946    269.17912   -191.71837          0.9          0.1         0.01      0.01782    23.408264    269.17912   -20.940795 
  931800    46478.474      130.783    4082.2531    2394.7826    1957.2781    4352.0607    7119.1787   -16.970169   -8.3580946    268.72048   -191.78136          0.9          0.1         0.01      0.01782    12.282675    268.72048   -20.894749 
  932000    46478.474    134.42086    4415.4583     2461.396    1978.0951    4439.4911    7432.4692    -6.761993   -8.3580946    269.26132   -191.39434          0.9          0.1         0.01      0.01782    22.808795    269.26132   -21.212694 
  932200    46478.474    134.11224     3120.883    2455.7448    1941.1435    4396.8883    6512.3504    -4.122196   -8.3580946    269.07981   -191.14989          0.9          0.1         0.01      0.01782    24.987129    269.07981   -20.751231 
  932400    46478.474    130.41289    3432.4441    2388.0056    1942.9351    4330.9407    6657.5916   -19.671847   -8.3580946    269.16888   -190.98115          0.9          0.1         0.01      0.01782    9.6874876    269.16888    -21.00124 
  932600    46478.474    131.91053    4210.8282    2415.4291     2002.853    4418.2821    7272.5535    9.4220319   -8.3580946    269.85958    -190.9098          0.9          0.1         0.01      0.01782    38.603099    269.85958   -20.822972 
  932800    46478.474    133.98625    4079.7277    2453.4377    1978.0418    4431.4795    7196.8856   -4.8675017   -8.3580946    269.53497   -190.89957          0.9          0.1         0.01      0.01782    24.749005    269.53497   -21.258412 
  933000    46478.474    132.99832    3666.8159    2435.3477    1906.1693     4341.517    6827.0347   -21.434638   -8.3580946    269.58038    -190.9973          0.9          0.1         0.01      0.01782    8.5182305    269.58038   -21.594774 
  933200    46478.474    133.35183    3635.2653    2441.8208    1963.5839    4405.4047    6869.5361   0.39221162   -8.3580946     269.7097   -191.02241          0.9          0.1         0.01      0.01782    30.798959     269.7097   -22.048653 
  933400    46478.474    132.72551    3380.2931    2430.3523    2001.2724    4431.6247    6722.9255   -17.335795   -8.3580946    269.45267   -191.04523          0.9          0.1         0.01      0.01782    12.387148    269.45267   -21.364848 
  933600    46478.474    132.84839     3407.702    2432.6023    1994.9759    4427.5782    6737.4579   -17.908272   -8.3580946    269.39224   -190.97597          0.9          0.1         0.01      0.01782     11.80018    269.39224   -21.350357 
  933800    46478.474    131.37922    2524.2639    2405.7001    2004.6286    4410.3287    6121.3779   -12.757929   -8.3580946    269.43194   -191.20442          0.9          0.1         0.01      0.01782    16.642576    269.43194    -21.04241 
  934000    46478.474     137.6438    3384.9353    2520.4116    1995.2131    4515.6247    6810.0721   -5.8070871   -8.3580946    269.37169   -191.29414          0.9          0.1         0.01      0.01782    23.361483    269.37169   -20.810475 
  934200    46478.474    132.73852    3442.0615    2430.5905    1989.9294    4420.5199    6753.6899   -20.237739   -8.3580946    269.51226   -191.24713          0.9          0.1         0.01      0.01782    9.0464979    269.51226   -20.926142 
  934400    46478.474    133.69012    2837.0979    2448.0153    1938.7563    4386.7716    6309.8725   -38.627468   -8.3580946    268.98697   -191.38879          0.9          0.1         0.01      0.01782   -8.9421193    268.98697   -21.327255 
  934600    46478.474     136.2178    3134.4442       2494.3    1954.8071    4449.1071    6573.7614   -6.1739176   -8.3580946    269.66226   -191.29816          0.9          0.1         0.01      0.01782    23.763891    269.66226   -21.579714 
  934800    46478.474    133.78699    3371.4552    2449.7891    1976.6195    4426.4086    6711.7187   -16.225531   -8.3580946    269.54384   -191.26663          0.9          0.1         0.01      0.01782     13.02807    269.54384   -20.895507 
  935000    46478.474     131.4854     3534.455    2407.6445    1977.2557    4384.9001    6780.6982   -23.818406   -8.3580946    269.13068   -191.19276          0.9          0.1         0.01      0.01782    6.0044733    269.13068   -21.464785 
  935200    46478.474    135.13704    3989.1614      2474.51    1957.6376    4432.1476    7136.1643   -33.772988   -8.3580946    269.67134   -191.33231          0.9          0.1         0.01      0.01782   -3.3339491    269.67134   -22.080945 
  935400    46478.474    135.40004    3066.1223    2479.3259     1969.872    4449.1979    6527.5408   -23.538621   -8.3580946    268.97249   -191.73836          0.9          0.1         0.01      0.01782    6.2870408    268.97249   -21.467568 
  935600    46478.474    130.28362    3058.3364    2385.6384    1961.6121    4347.2506     6420.316   -22.841523   -8.3580946    269.50581    -191.5348          0.9          0.1         0.01      0.01782    6.9779092    269.50581   -21.461337 
  935800    46478.474    133.07957    4691.4928    2436.8355    1983.5427    4420.3782    7600.4637   -12.292518   -8.3580946    269.99238   -191.16475          0.9          0.1         0.01      0.01782    17.026293    269.99238   -20.960716 
  936000    46478.474    133.45901     3897.646    2443.7834    1983.4563    4427.2397    7069.2235   -21.060896   -8.3580946    269.45851   -191.28979          0.9          0.1         0.01      0.01782     7.764324    269.45851   -20.467126 
  936200    46478.474    134.08302    3148.0818    2455.2097     1927.434    4382.6437    6516.5422   -35.684776   -8.3580946    268.76501   -191.37234          0.9          0.1         0.01      0.01782   -6.4496739    268.76501   -20.877007 
  936400    46478.474    129.60525    3882.9801    2373.2168    1957.1776    4330.3944     6962.437   -37.947556   -8.3580946    268.58463    -191.2948          0.9          0.1         0.01      0.01782   -8.4202307    268.58463   -21.169231 
  936600    46478.474    133.95754    4488.8093    2452.9121    1990.6904    4443.6025    7486.3009   -20.485907   -8.3580946    269.48208   -191.23301          0.9          0.1         0.01      0.01782     8.584849    269.48208   -20.712661 
  936800    46478.474    132.99464     2978.277    2435.2803    1951.6859    4386.9663    6405.7641   -10.983303   -8.3580946     269.1201   -191.32873          0.9          0.1         0.01      0.01782    17.789126     269.1201   -20.414334 
  937000    46478.474    133.89304    2112.8206    2451.7309     1961.555     4413.286    5845.4421    -26.22566   -8.3580946    269.25891    -191.3617          0.9          0.1         0.01      0.01782    2.4340834    269.25891   -20.301649 
  937200    46478.474    133.76186    3493.3404     2449.329    2001.7722    4451.1012    6819.0301   -36.027184   -8.3580946    269.13684   -191.33907          0.9          0.1         0.01      0.01782   -7.0606594    269.13684    -20.60843 
  937400    46478.474    131.44779    4995.8845    2406.9557    1975.5125    4382.4682    7768.8829   -22.545237   -8.3580946    269.81656   -191.26204          0.9          0.1         0.01      0.01782    7.1529359    269.81656   -21.340078 
  937600    46478.474    133.30102    3907.4959    2440.8904    1983.3742    4424.2645    7072.9249   -25.977274   -8.3580946    270.05782   -191.23975          0.9          0.1         0.01      0.01782    3.0030491    270.05782   -20.622229 
  937800    46478.474    132.35163    3004.0696    2423.5061    1995.4101    4418.9162    6455.1973    -25.41709   -8.3580946     269.4181   -191.19003          0.9          0.1         0.01      0.01782    3.8979653     269.4181    -20.95696 
  938000    46478.474     131.8544    4363.5783    2414.4012     1939.068    4353.4692    7311.2809   -28.740358   -8.3580946    269.71712   -191.18074          0.9          0.1         0.01      0.01782 -0.049029204    269.71712   -20.333235 
  938200    46478.474    135.41054    5125.8402    2479.5182    1963.1829     4442.701     7917.205   -25.976923   -8.3580946    270.58582   -190.86244          0.9          0.1         0.01      0.01782    3.1376321    270.58582   -20.756461 
  938400    46478.474    131.39215    3045.7665    2405.9369    1968.5866    4374.5235    6439.0685   -30.439879   -8.3580946    270.43324   -190.96269          0.9          0.1         0.01      0.01782  -0.93787797    270.43324   -21.143907 
  938600    46478.474    130.72037    2819.4358    2393.6358    1946.2545    4339.8903    6251.0191   -5.8581971   -8.3580946    269.36158   -191.18362          0.9          0.1         0.01      0.01782     23.96227    269.36158   -21.462372 
  938800    46478.474    131.78167    4432.3186    2413.0695    1988.9505      4402.02    7406.4266   -3.8636366   -8.3580946     270.0908   -191.16142          0.9          0.1         0.01      0.01782    25.594674     270.0908   -21.100216 
  939000    46478.474    131.59126     4100.979    2409.5828    2030.8982     4440.481    7220.2921   -7.5754647   -8.3580946    269.12215   -191.12223          0.9          0.1         0.01      0.01782    22.224368    269.12215   -21.441738 
  939200    46478.474    130.66992    3083.0489    2392.7121    1960.3355    4353.0476    6442.8641   -15.450591   -8.3580946    269.84858   -191.11874          0.9          0.1         0.01      0.01782    14.662733    269.84858   -21.755229 
  939400    46478.474    133.51512    3797.4728    2444.8109     1971.741    4416.5519    6990.6341   -25.389993   -8.3580946    269.25617   -191.26029          0.9          0.1         0.01      0.01782    4.0818826    269.25617   -21.113781 
  939600    46478.474    132.65615    5669.5148    2429.0822    2019.4158     4448.498    8291.5269    -1.013074   -8.3580946     269.7665   -191.14503          0.9          0.1         0.01      0.01782     27.91905     269.7665   -20.574029 
  939800    46478.474    133.39631    4719.1325    2442.6352    1963.3063    4405.9415    7604.7624   -13.212303   -8.3580946    269.86221   -190.77258          0.9          0.1         0.01      0.01782    16.012576    269.86221   -20.866784 
  940000    46478.474    132.47578    3211.7521    2425.7795    1992.6855     4418.465    6595.5218     -12.6602   -8.3580946    270.19423   -190.94971          0.9          0.1         0.01      0.01782    16.886257    270.19423   -21.188362 
  940200    46478.474    135.87267    3811.9931    2487.9802    1992.3204    4480.3006    7064.2253   -9.1238532   -8.3580946    269.86817   -191.30461          0.9          0.1         0.01      0.01782    20.837417    269.86817   -21.603176 
  940400    46478.474    133.84445    4686.6014    2450.8412    1929.2693    4380.1105    7556.8805   -39.034682   -8.3580946    269.48198   -191.33481          0.9          0.1         0.01      0.01782   -8.8540923    269.48198   -21.822495 
  940600    46478.474    132.03669    4009.7624    2417.7392    1988.6628     4406.402    7124.3828   -21.635196   -8.3580946    269.47582   -191.48183          0.9          0.1         0.01      0.01782    8.3279697    269.47582   -21.605072 
  940800    46478.474    136.15469    3245.7102    2493.1444    1989.5146     4482.659     6682.734    3.6667048   -8.3580946    269.35091   -191.59758          0.9          0.1         0.01      0.01782    32.436878    269.35091   -20.412079 
  941000    46478.474    134.20099    2799.3463    2457.3699    1952.6698    4410.0398    6307.5511   -16.545711   -8.3580946    269.02281   -191.79455          0.9          0.1         0.01      0.01782     11.27384    269.02281   -19.461457 
  941200    46478.474    132.76745    2744.2358    2431.1202    1951.5772    4382.6974    6242.8526   -11.097259   -8.3580946    269.21525   -191.54169          0.9          0.1         0.01      0.01782    16.221548    269.21525   -18.960712 
  941400    46478.474    135.94985    2650.9756    2489.3934    2004.1237    4493.5171    6290.4567    -1.165677   -8.3580946    269.39791   -191.56617          0.9          0.1         0.01      0.01782    25.946629    269.39791   -18.754211 
  941600    46478.474    134.26682    2211.3185    2458.5752     1970.286    4428.8612    5927.7833   -9.4361714   -8.3580946    269.83501   -191.45445          0.9          0.1         0.01      0.01782    18.084569    269.83501   -19.162646 
  941800    46478.474    132.94086    3446.5854    2434.2955    1935.5105     4369.806    6706.0424   -23.566128   -8.3580946    270.29503   -191.25082          0.9          0.1         0.01      0.01782    4.3883725    270.29503   -19.596406 
  942000    46478.474     131.0453    4322.5379    2399.5856    1929.3224     4328.908    7258.9009   -22.493465   -8.3580946    269.05349   -191.50099          0.9          0.1         0.01      0.01782    5.6133617    269.05349   -19.748732 
  942200    46478.474    135.15833    4479.9892    2474.8999    1968.3487    4443.2486    7479.9683   -29.161205   -8.3580946    269.65703   -191.37233          0.9          0.1         0.01      0.01782   -1.9071288    269.65703   -18.895982 
  942400    46478.474    132.60826    5349.4114    2428.2053    1954.7863    4382.9916    8009.0412   -18.520721   -8.3580946     270.1613   -191.42725          0.9          0.1         0.01      0.01782    8.4507395     270.1613   -18.613366 
  942600    46478.474    130.19989    5119.8299    2384.1053    1941.8711    4325.9764    7796.4064   -36.473607   -8.3580946    269.95632   -191.42111          0.9          0.1         0.01      0.01782   -8.5602791    269.95632   -19.555233 
  942800    46478.474    134.82907    4430.2626    2468.8707    1967.8838    4436.7546    7439.7676   -39.198357   -8.3580946    269.88957   -191.44017          0.9          0.1         0.01      0.01782   -10.687963    269.88957   -20.152299 
  943000    46478.474    131.94896    3783.5349    2416.1328    1962.0741    4378.2069    6942.8415    -26.59128   -8.3580946    269.75793    -191.3658          0.9          0.1         0.01      0.01782    2.5555722    269.75793   -20.788758 
  943200    46478.474     133.3927    3507.9215    2442.5693    1926.9856    4369.5548    6747.3674   -26.726786   -8.3580946    269.90537   -191.10392          0.9          0.1         0.01      0.01782    1.7387038    269.90537   -20.107396 
  943400    46478.474    136.34682    3630.4001    2496.6625    1948.9796    4445.6421    6906.4756   -9.6686029   -8.3580946    269.97325   -191.17889          0.9          0.1         0.01      0.01782    18.576932    269.97325    -19.88744 
  943600    46478.474    132.35221    3552.5877    2423.5167    1946.4217    4369.9384    6778.0275   -24.805435   -8.3580946    270.31187   -191.04928          0.9          0.1         0.01      0.01782     3.707773    270.31187   -20.155114 
  943800    46478.474    133.63284    4051.1965    2446.9664    2030.9679    4477.9344    7224.0009     9.094869   -8.3580946     270.3897   -191.12334          0.9          0.1         0.01      0.01782     38.37811     270.3897   -20.925146 
  944000    46478.474    133.96526    4429.3676    2453.0534    1966.0442    4419.0976    7421.5039   -26.553819   -8.3580946    270.10011   -191.08477          0.9          0.1         0.01      0.01782    3.2504539    270.10011   -21.446179 
  944200    46478.474    132.84562    3877.4341    2432.5516    1960.5365    4393.0881    7021.3714   -24.227363   -8.3580946    269.86095   -191.20804          0.9          0.1         0.01      0.01782    5.5993121    269.86095   -21.468581 
  944400    46478.474    132.97251    4038.8612    2434.8751    2028.5684    4463.4436    7201.1487   -20.375479   -8.3580946    269.50921    -191.2872          0.9          0.1         0.01      0.01782    9.3919146    269.50921   -21.409299 
  944600    46478.474    135.49973    3883.1879    2481.1514    2021.3474    4502.4988    7134.6823   -14.208393   -8.3580946    269.71756   -191.14879          0.9          0.1         0.01      0.01782    15.240427    269.71756   -21.090725 
  944800    46478.474    133.70222    3700.5288     2448.237    1967.2402    4415.4772    6923.8468   -8.5612345   -8.3580946    269.70084   -191.15681          0.9          0.1         0.01      0.01782    20.162857    269.70084   -20.365996 
  945000    46478.474    134.54554    3543.3466     2463.679    1928.9332    4392.6122    6794.4374   -23.727641   -8.3580946    269.71451   -191.05153          0.9          0.1         0.01      0.01782    5.1044326    269.71451   -20.473979 
  945200    46478.474    132.71756    4103.8218    2430.2066     1941.223    4371.4296    7153.1677   -14.585489   -8.3580946    269.71119   -191.22052          0.9          0.1         0.01      0.01782    14.657273    269.71119   -20.884667 
  945400    46478.474    134.73391    4399.1646    2467.1282    2001.1003    4468.2285    7450.1621   -3.4294128   -8.3580946    269.02862   -191.20161          0.9          0.1         0.01      0.01782     26.58287    269.02862   -21.654188 
  945600    46478.474    132.36192    4358.8569    2423.6945    1959.6665     4383.361    7337.9723   -7.9751376   -8.3580946    269.51605   -191.01911          0.9          0.1         0.01      0.01782    22.001786    269.51605   -21.618829 
  945800    46478.474    133.35549      4228.48    2441.8878    1961.9734    4403.8613    7270.0978   -23.419213   -8.3580946    269.91424   -191.13572          0.9          0.1         0.01      0.01782    5.9036337    269.91424   -20.964752 
  946000    46478.474    134.46584    3996.2177    2462.2197    1983.1645    4445.3841    7154.1838   -16.942708   -8.3580946    270.13203   -191.34188          0.9          0.1         0.01      0.01782     12.26282    270.13203   -20.847433 
  946200    46478.474    137.00814     4235.994     2508.772    1978.6062    4487.3782    7358.7081   -19.054487   -8.3580946    270.01728   -191.38211          0.9          0.1         0.01      0.01782    9.7619847    270.01728   -20.458377 
  946400    46478.474    131.87519    3855.2101    2414.7819    1964.5963    4379.3782    6992.5971    -26.82469   -8.3580946    269.77014   -191.49121          0.9          0.1         0.01      0.01782    2.0338761    269.77014   -20.500472 
  946600    46478.474    132.77369    3306.0373    2431.2344    2014.5844    4445.8189    6686.7861   -31.591609   -8.3580946    269.26668    -191.5236          0.9          0.1         0.01      0.01782   -2.3774186    269.26668   -20.856096 
  946800    46478.474    133.37587    3565.0581     2442.261    1998.5063    4440.7673    6857.3093   -20.545744   -8.3580946     269.2357   -191.52043          0.9          0.1         0.01      0.01782    8.6308568     269.2357   -20.818506 
  947000    46478.474    132.40837    3965.6518     2424.545    1948.4192    4372.9641     7061.045   -27.564281   -8.3580946    269.44477   -191.15735          0.9          0.1         0.01      0.01782    1.3456379    269.44477   -20.551824 
  947200    46478.474    134.54088    5091.0922    2463.5936    2005.5846    4469.1782    7920.1285   -30.085043   -8.3580946    269.24775   -191.21211          0.9          0.1         0.01      0.01782   -1.2713573    269.24775   -20.455591 
  947400    46478.474     133.5948     5616.581    2446.2698    1965.4268    4411.6966    8218.8448   -23.531396   -8.3580946     269.4268   -191.08281          0.9          0.1         0.01      0.01782    5.6840772     269.4268   -20.857378 
  947600    46478.474    129.41968    4359.9239    2369.8188    1937.4878    4307.3066    7262.6412   -37.076154   -8.3580946    268.86806   -190.95316          0.9          0.1         0.01      0.01782   -7.9948258    268.86806   -20.723233 
  947800    46478.474    132.70802    3790.2945     2430.032    1977.7833    4407.8153    6977.0318   -26.198186   -8.3580946    269.08326   -191.01661          0.9          0.1         0.01      0.01782    3.3747063    269.08326   -21.214798 
  948000    46478.474    134.10635    3529.5909     2455.637    1996.8455    4452.4825    6844.9834   -14.320356   -8.3580946    268.82461   -191.13732          0.9          0.1         0.01      0.01782    15.517874    268.82461   -21.480136 
  948200    46478.474    132.59623    3109.2749     2427.985     1925.606     4353.591    6461.1846   -35.980222   -8.3580946    268.98024    -191.3412          0.9          0.1         0.01      0.01782   -6.2007546    268.98024   -21.421372 
  948400    46478.474    133.50559    3239.1326    2444.6364    1955.9552    4400.5917    6596.2081    -44.25875   -8.3580946    268.58003   -191.26442          0.9          0.1         0.01      0.01782   -13.890197    268.58003   -22.010458 
  948600    46478.474    133.16826    3575.0546    2438.4595    1965.3273    4403.7868    6827.1049   -18.990667   -8.3580946    269.18257   -191.36629          0.9          0.1         0.01      0.01782    10.794452    269.18257   -21.427025 
  948800    46478.474    133.03204    3262.2786    2435.9652    2045.8259    4481.7912    6693.0969   -18.050016   -8.3580946    269.09066   -191.26468          0.9          0.1         0.01      0.01782    11.290857    269.09066   -20.982779 
  949000    46478.474    136.01535    3545.0148     2490.593    1958.8872    4449.4801     6852.436   -13.043219   -8.3580946    268.84163   -191.48942          0.9          0.1         0.01      0.01782    16.024635    268.84163    -20.70976 
  949200    46478.474    134.15764    2981.6477    2456.5761    1954.9236    4411.4997    6432.5824   -19.611122   -8.3580946    268.29745   -191.71756          0.9          0.1         0.01      0.01782    8.8379095    268.29745   -20.090937 
  949400    46478.474     134.2901    2723.0091    2459.0016    1972.8449    4431.8465    6277.6134   -26.086742   -8.3580946    268.60442   -191.65397          0.9          0.1         0.01      0.01782     1.838049    268.60442   -19.566696 
  949600    46478.474    131.14804    3335.4557     2401.467    1938.4548    4339.9219    6600.8301   -20.499181   -8.3580946    269.01489    -191.6003          0.9          0.1         0.01      0.01782    7.5643096    269.01489   -19.705396 
  949800    46478.474    135.85582    3610.5732    2487.6717    1951.2309    4438.9026    6886.2966    -18.94853   -8.3580946    268.44455    -191.6385          0.9          0.1         0.01      0.01782    9.4758598    268.44455   -20.066295 
  950000    46478.474    132.01371     3670.467    2417.3184    2007.6611    4424.9795     6912.972    -8.898034   -8.3580946    268.69299   -191.91445          0.9          0.1         0.01      0.01782    18.936199    268.69299   -19.476138 
  950200    46478.474    129.03121    4245.0033    2362.7055    2003.5333    4366.2388    7243.6755   -11.618229   -8.3580946    269.16256   -191.87259          0.9          0.1         0.01      0.01782    15.881201    269.16256   -19.141336 
  950400    46478.474    136.98415     4656.661    2508.3326     1934.035    4442.3676    7598.8427   -15.559877   -8.3580946    269.05736   -191.89166          0.9          0.1         0.01      0.01782     11.31329    269.05736   -18.515072 
  950600    46478.474    135.40535    4484.3361     2479.423    1962.1201    4441.5432    7481.2095   -21.827987   -8.3580946    269.41921   -191.63768          0.9          0.1         0.01      0.01782    5.5386107    269.41921   -19.008503 
  950800    46478.474    134.10048    3951.8505    2455.5294    1916.5571    4372.0865    7050.8123   -15.988346   -8.3580946    269.35663   -191.44333          0.9          0.1         0.01      0.01782    11.727839    269.35663   -19.358091 
  951000    46478.474    135.08448    3890.2953    2473.5476    1966.4496    4439.9972    7076.9984   -15.398084   -8.3580946    269.48725   -191.28982          0.9          0.1         0.01      0.01782    12.143856    269.48725   -19.183846 
  951200    46478.474    131.24925    3923.1996    2403.3202    1936.4696    4339.7898    6999.0948   -29.476684   -8.3580946     269.7215   -191.14766          0.9          0.1         0.01      0.01782   -1.7165733     269.7215   -19.402017 
  951400    46478.474    132.58263    3290.6417    2427.7359    1948.1959    4375.9318    6606.4633   -24.716575   -8.3580946    269.67146    -190.9158          0.9          0.1         0.01      0.01782     3.031288    269.67146   -19.389769 
  951600    46478.474     133.6941    4097.7281    2448.0882    1991.7755    4439.8637    7217.4713   -11.222161   -8.3580946    269.78116   -190.87738          0.9          0.1         0.01      0.01782     16.70372    269.78116   -19.567787 
  951800    46478.474     134.0052    3841.0598    2453.7847    1952.3288    4406.1136    7009.7409   -17.749131   -8.3580946    270.72806   -190.74078          0.9          0.1         0.01      0.01782    10.176242    270.72806   -19.567279 
  952000    46478.474    132.37559    2498.7503    2423.9448    1942.4872     4366.432     6060.187   -12.664217   -8.3580946     269.6845   -191.07285          0.9          0.1         0.01      0.01782    15.514936     269.6845   -19.821059 
  952200    46478.474    134.61812    2293.5075    2465.0081     1992.461    4457.4691    6012.1022   -19.316031   -8.3580946    269.28704   -191.13416          0.9          0.1         0.01      0.01782    9.3000395    269.28704   -20.257976 
  952400    46478.474    132.40159    3157.7565    2424.4208     1966.069    4390.4898    6530.9462   -28.981617   -8.3580946    270.15441   -191.21652          0.9          0.1         0.01      0.01782  -0.48636082    270.15441   -20.137161 
  952600    46478.474    131.15404     3357.103    2401.5769    2003.3511     4404.928    6680.5096   -20.783242   -8.3580946    269.33204   -191.15634          0.9          0.1         0.01      0.01782    7.9097366    269.33204   -20.334884 
  952800    46478.474    133.84502    3622.4292    2450.8517    1975.5058    4426.3575     6881.788   -20.419101   -8.3580946    270.03048    -190.8101          0.9          0.1         0.01      0.01782     8.880718    270.03048   -20.941725 
  953000    46478.474    133.47182    3873.8596     2444.018     1970.634     4414.652    7040.5123   -31.431283   -8.3580946    270.54093   -190.77433          0.9          0.1         0.01      0.01782   -1.8969812    270.54093   -21.176207 
  953200    46478.474    132.47315    4199.3619    2425.7313    1892.5605    4318.2918    7164.7909    -32.93586   -8.3580946    269.89793   -190.82673          0.9          0.1         0.01      0.01782   -3.9052579    269.89793   -20.672507 
  953400    46478.474    134.14629    4171.2694    2456.3684    1966.5667    4422.9351    7250.3919   -32.662216   -8.3580946    269.45482    -190.8287          0.9          0.1         0.01      0.01782   -4.3417513    269.45482    -19.96237 
  953600    46478.474    132.51438    3062.6833    2426.4863    1981.3287     4407.815    6483.8269   -16.291537   -8.3580946    269.21578   -190.86611          0.9          0.1         0.01      0.01782    12.202739    269.21578   -20.136181 
  953800    46478.474    131.08453    2812.1381    2400.3041     1935.496       4335.8    6241.9821   -24.661858   -8.3580946    269.14633   -190.73108          0.9          0.1         0.01      0.01782    3.4043647    269.14633   -19.708128 
  954000    46478.474    133.41932    3350.2604    2443.0567    1990.6201    4433.6768    6704.6202      -22.072   -8.3580946    269.51151    -190.9327          0.9          0.1         0.01      0.01782    5.6879455    269.51151   -19.401851 
  954200    46478.474    131.79959    2956.0843    2413.3975    1980.0063    4393.4038    6397.1585   -33.987959   -8.3580946    269.38147   -190.87237          0.9          0.1         0.01      0.01782   -5.9207778    269.38147   -19.709086 
  954400    46478.474    131.85562    3222.2893    2414.4235    1934.5359    4348.9594    6533.1588   -20.357197   -8.3580946    269.07119   -191.03036          0.9          0.1         0.01      0.01782    7.9065208    269.07119   -19.905623 
  954600    46478.474    134.18196    4077.4074    2457.0215    1998.7438    4455.7653    7219.5987   -19.540769   -8.3580946    269.50757   -190.92556          0.9          0.1         0.01      0.01782    8.3639061    269.50757   -19.546581 
  954800    46478.474    130.69113    4168.9787    2393.1005    2014.0416    4407.1421    7233.0462   -20.010859   -8.3580946    269.76873   -191.14451          0.9          0.1         0.01      0.01782    8.8815216    269.76873   -20.534286 
  955000    46478.474    132.05663    4152.9006    2418.1043    1931.3497     4349.454    7164.4597    -20.05057   -8.3580946    269.96265   -191.23794          0.9          0.1         0.01      0.01782    9.2038771    269.96265   -20.896353 
  955200    46478.474    134.49433    3338.4901    2462.7412    1966.2733    4429.0145    6691.9795   -26.666582   -8.3580946    270.04798   -191.14711          0.9          0.1         0.01      0.01782    2.8936757    270.04798   -21.202163 
  955400    46478.474    131.23775    3758.9683    2403.1096    1949.7269    4352.8366    6900.8189    -21.68118   -8.3580946    269.85637   -191.24203          0.9          0.1         0.01      0.01782    7.4808278    269.85637   -20.803913 
  955600    46478.474    131.57118     4946.071    2409.2151     1987.655    4396.8701    7749.5192   -25.630671   -8.3580946    269.89008   -191.12978          0.9          0.1         0.01      0.01782    3.6896175    269.89008   -20.962194 
  955800    46478.474    134.76646    4589.1292    2467.7243    1988.0196    4455.7439    7566.4432   -12.498023   -8.3580946    269.18278   -191.26433          0.9          0.1         0.01      0.01782    16.854457    269.18278   -20.994385 
  956000    46478.474    134.47821    3615.8036    2462.4461    1944.1683    4406.6144    6857.5538   -18.655846   -8.3580946    269.43966   -191.30204          0.9          0.1         0.01      0.01782    10.639963    269.43966   -20.937715 
  956200    46478.474    131.62401    3747.3775    2410.1826    1955.9629    4366.1454     6906.271   -18.735343   -8.3580946     269.6701   -191.24932          0.9          0.1         0.01      0.01782    11.271164     269.6701   -21.648413 
  956400    46478.474     135.6131    4389.7163    2483.2273    1986.8874    4470.1147    7445.6438   -18.240142   -8.3580946    269.24553   -191.48445          0.9          0.1         0.01      0.01782    12.384994    269.24553   -22.267041 
  956600    46478.474    132.33676    3650.8276    2423.2337    1960.7369    4383.9706    6858.6508   -17.648567   -8.3580946    269.26511   -191.68399          0.9          0.1         0.01      0.01782    13.364245    269.26511   -22.654718 
  956800    46478.474    133.31506    3082.3245    2441.1476    1964.7916    4405.9392    6495.2647   -9.9525629   -8.3580946    268.68377   -191.53663          0.9          0.1         0.01      0.01782    20.520205    268.68377   -22.114674 
  957000    46478.474    134.20251    3858.2192    2457.3978    1991.6209    4449.0187    7064.2773    6.4437097   -8.3580946    268.80211   -191.47565          0.9          0.1         0.01      0.01782    37.010808    268.80211   -22.209004 
  957200    46478.474    137.35026    4889.3591    2515.0365    2031.2846    4546.3211    7860.5285    -8.583924   -8.3580946    269.44768   -191.55488          0.9          0.1         0.01      0.01782     22.29992    269.44768   -22.525749 
  957400    46478.474    132.38637    3864.8639    2424.1422    1996.0908    4420.2331    7039.9957   -24.195966   -8.3580946    268.94699   -191.41144          0.9          0.1         0.01      0.01782    6.0435476    268.94699   -21.881419 
  957600    46478.474    131.51311    3299.2788    2408.1519    1952.7456    4360.8975    6597.2835    3.0580352   -8.3580946    268.76698   -191.26768          0.9          0.1         0.01      0.01782    32.748919    268.76698   -21.332789 
  957800    46478.474    134.23034    4258.0017    2457.9074    1997.6246     4455.532    7341.7795    -12.45819   -8.3580946    269.29817   -191.28404          0.9          0.1         0.01      0.01782    17.650625    269.29817    -21.75072 
  958000    46478.474    133.88439    4635.5138    2451.5726    1964.5104     4416.083    7558.2237   -27.762327   -8.3580946    269.43178   -191.40121          0.9          0.1         0.01      0.01782    3.1640815    269.43178   -22.568314 
  958200    46478.474    131.52909    3659.1788    2408.4445    1991.4927    4399.9372    6880.2781   -15.433841   -8.3580946     269.4064   -191.36844          0.9          0.1         0.01      0.01782     15.39064     269.4064   -22.466386 
  958400    46478.474    135.30391    3343.3086    2477.5656    2000.3796    4477.9452    6744.1764    -27.75225   -8.3580946    269.43799   -191.21483          0.9          0.1         0.01      0.01782    2.9479522    269.43799   -22.342108 
  958600    46478.474     132.6248    3949.7539     2428.508    1945.4292    4373.9372    7051.2418   -33.261535   -8.3580946    269.81644   -191.16764          0.9          0.1         0.01      0.01782   -3.3646062    269.81644   -21.538834 
  958800    46478.474    134.82456    3621.2914    2468.7881    1962.6518    4431.4399    6886.0992   -33.459746   -8.3580946    269.61029   -191.06221          0.9          0.1         0.01      0.01782   -3.8006434    269.61029   -21.301008 
  959000    46478.474    136.12827    2953.9579    2492.6606     1991.426    4484.0867    6486.4001   -12.901835   -8.3580946     269.0044   -191.30203          0.9          0.1         0.01      0.01782    16.351776     269.0044   -20.895516 
  959200    46478.474    133.56564    3223.0596     2445.736      1923.35     4369.086    6553.8076   -38.603662   -8.3580946    269.31448   -191.22855          0.9          0.1         0.01      0.01782   -9.9133489    269.31448   -20.332218 
  959400    46478.474    133.66907    5212.8439    2447.6299    1998.0414    4445.6713    7979.1499   -20.071182   -8.3580946    269.28586   -191.18865          0.9          0.1         0.01      0.01782    8.4106861    269.28586   -20.123773 
[...]
 2885800    46478.474    133.62201    2736.6243    2446.7682    1936.7772    4383.5454    6238.5412   -43.331688   -8.3580946    269.85065   -191.45786          0.9          0.1         0.01      0.01782   -13.408461    269.85065   -21.565133 
 2886000    46478.474    135.59656    2741.9196    2482.9244    1964.5739    4447.4983    6306.0834   -27.207319   -8.3580946      268.777   -191.62415          0.9          0.1         0.01      0.01782    1.9876481      268.777   -20.836872 
 2886200    46478.474    133.99399    3271.5028    2453.5795    2012.7034    4466.2829    6683.8412   -11.587267   -8.3580946    268.86869   -191.85912          0.9          0.1         0.01      0.01782     17.57606    268.86869   -20.805233 
 2886400    46478.474    134.14586    3435.0243    2456.3605    1946.0103    4402.3707    6730.7705   -29.584507   -8.3580946    268.37579   -191.86014          0.9          0.1         0.01      0.01782   0.30400777    268.37579    -21.53042 
 2886600    46478.474    134.93578     3834.873    2470.8248    1964.1432    4434.9681    7034.4017   -33.223831   -8.3580946    268.47756   -191.92258          0.9          0.1         0.01      0.01782   -3.3844267    268.47756    -21.48131 
 2886800    46478.474    137.33062    3787.4618    2514.6769    2004.3363    4519.0133    7086.3096   -24.686694   -8.3580946    269.05583   -191.88689          0.9          0.1         0.01      0.01782    5.0197876    269.05583   -21.348387 
 2887000    46478.474    133.49372    3230.2108    2444.4189    1999.7208    4444.1397    6633.7086    -30.66119   -8.3580946    269.94055   -191.72772          0.9          0.1         0.01      0.01782   -1.1076569    269.94055   -21.195438 
 2887200    46478.474    132.98266    3408.2199     2435.061    1941.4311    4376.4921    6686.7228    -30.67573   -8.3580946    269.45673   -191.66296          0.9          0.1         0.01      0.01782  -0.90610238    269.45673   -21.411533 
 2887400    46478.474    134.81419    3612.4015    2468.5982    1993.7279    4462.3262    6910.9596   -23.511221   -8.3580946    269.76217    -191.6758          0.9          0.1         0.01      0.01782    6.1627508    269.76217   -21.315877 
 2887600    46478.474    131.75301    4653.4649    2412.5446    2033.6263    4446.1709    7600.4796   -17.718557   -8.3580946    269.76401   -191.66879          0.9          0.1         0.01      0.01782    12.543165    269.76401   -21.903627 
 2887800    46478.474    131.73932    3776.3616     2412.294    1978.3695    4390.6635    6950.4356   -27.523897   -8.3580946    269.87096   -191.57493          0.9          0.1         0.01      0.01782    1.8942004    269.87096   -21.060003 
 2888000    46478.474    135.54852    4138.2515    2482.0447    1954.5123    4436.5571     7241.633   -35.610725   -8.3580946    270.21993   -191.57869          0.9          0.1         0.01      0.01782   -6.3516779    270.21993   -20.900953 
 2888200    46478.474    133.72945    4527.3949    2448.7354    1993.2685    4442.0039    7510.8572   -24.834323   -8.3580946    269.39863   -191.72964          0.9          0.1         0.01      0.01782    4.0488648    269.39863   -20.525094 
 2888400    46478.474    133.85643    3357.5059    2451.0606    2019.1385    4470.1991    6746.0538   -24.372254   -8.3580946    269.12044   -191.81338          0.9          0.1         0.01      0.01782    4.6399218    269.12044   -20.654081 
 2888600    46478.474    131.72769    2878.8232    2412.0811    2011.9322    4424.0133    6375.3973   -26.826367   -8.3580946    269.22772   -191.72729          0.9          0.1         0.01      0.01782    2.3235422    269.22772   -20.791814 
 2888800    46478.474    132.35654    3471.3198    2423.5961    1960.6301    4384.2262    6737.2286   -30.975939   -8.3580946    268.31213   -191.74847          0.9          0.1         0.01      0.01782   -1.4857229    268.31213   -21.132122 
 2889000    46478.474    134.98046    4734.0018     2471.643    2013.3698    4485.0128    7693.9127   -16.367849   -8.3580946    269.01447    -191.8183          0.9          0.1         0.01      0.01782    13.386506    269.01447   -21.396261 
 2889200    46478.474    132.46113    4170.5525    2425.5112    1980.4837    4405.9949    7232.9658   -29.463236   -8.3580946    269.08098   -191.49644          0.9          0.1         0.01      0.01782  -0.37242101    269.08098   -20.732721 
 2889400    46478.474    132.43341    3951.6063    2425.0035    2001.6251    4426.6286    7105.1888   -13.008757   -8.3580946    269.21716   -191.37624          0.9          0.1         0.01      0.01782    15.567516    269.21716   -20.218179 
 2889600    46478.474    133.76179    4688.5821    2449.3277    2034.7077    4484.0354    7662.1479   -15.388058   -8.3580946    269.84834   -191.28865          0.9          0.1         0.01      0.01782    13.480908    269.84834   -20.510872 
 2889800    46478.474    132.36262    4442.4435    2423.7073    1968.7896    4392.4969    7403.7667   -24.119034   -8.3580946    269.30382   -191.13792          0.9          0.1         0.01      0.01782    5.0346955    269.30382   -20.795635 
 2890000    46478.474    135.41419     3166.619    2479.5849    1966.2511     4445.836    6592.2997   -31.624886   -8.3580946    269.37005   -191.00495          0.9          0.1         0.01      0.01782   -2.0296265    269.37005   -21.237165 
 2890200    46478.474    136.29421    3344.5577    2495.6992    2035.4154    4531.1146    6798.1925    -23.19519   -8.3580946    269.40646   -191.01857          0.9          0.1         0.01      0.01782    6.0719323    269.40646   -20.909027 
 2890400    46478.474    133.51713     4006.947    2444.8476    1971.6234     4416.471    7132.5435    -32.93943   -8.3580946    270.24858   -191.03504          0.9          0.1         0.01      0.01782   -3.5006103    270.24858   -21.080726 
 2890600    46478.474    134.24158    4079.0506    2458.1133    1996.5489    4454.6622    7219.6093   -17.590177   -8.3580946    270.10337   -191.28862          0.9          0.1         0.01      0.01782       11.733    270.10337   -20.965082 
 2890800    46478.474    131.75685    3447.7189     2412.615    2018.2588    4430.8738    6767.8785   -25.177941   -8.3580946    269.70912   -191.51839          0.9          0.1         0.01      0.01782    4.4837886    269.70912   -21.303635 
 2891000    46478.474    131.58953    4281.0049    2409.5511    1974.5129     4384.064    7285.9041   -31.275233   -8.3580946    269.41178     -191.549          0.9          0.1         0.01      0.01782   -1.6475401    269.41178   -21.269599 
 2891200    46478.474     132.7752    4817.1255    2431.2621    2004.9152    4436.1773    7701.4218   -31.520407   -8.3580946    269.27705   -191.42892          0.9          0.1         0.01      0.01782   -1.9112652    269.27705   -21.251048 
 2891400    46478.474    133.52988    3439.6704    2445.0811    1962.8819     4407.963    6739.5122   -24.718829   -8.3580946    268.68841   -191.41121          0.9          0.1         0.01      0.01782    4.4221624    268.68841   -20.782897 
 2891600    46478.474    130.81559     3709.352    2395.3794    1923.1883    4318.5677     6832.918   -18.773758   -8.3580946    268.97256   -191.57213          0.9          0.1         0.01      0.01782    11.033997    268.97256    -21.44966 
 2891800    46478.474    133.30253    4301.0337    2440.9181    1995.9654    4436.8835    7352.2999   -24.938992   -8.3580946    269.27672   -191.70472          0.9          0.1         0.01      0.01782    4.9641991    269.27672   -21.545097 
 2892000    46478.474     134.0444    4074.3535    2454.5025    1965.2491    4419.7516    7181.5149    -33.11705   -8.3580946    269.50669   -191.72911          0.9          0.1         0.01      0.01782   -2.7895435    269.50669   -21.969412 
 2892200    46478.474    132.04454    2525.3414    2417.8828    1935.3146    4353.1975     6064.977   -31.758355   -8.3580946    269.45832    -191.9179          0.9          0.1         0.01      0.01782   -1.0618641    269.45832   -22.338396 
 2892400    46478.474    135.87674     4046.115    2488.0547    1966.9668    4455.0215    7197.6436    -32.42104   -8.3580946    269.41355   -191.85488          0.9          0.1         0.01      0.01782   -2.0345118    269.41355   -22.028434 
 2892600    46478.474    132.93852    4276.1952    2434.2527    1938.7848    4373.0375    7271.6174   -27.201761   -8.3580946    270.00851    -191.6751          0.9          0.1         0.01      0.01782    2.3947235    270.00851    -21.23839 
 2892800    46478.474    134.59557    2941.9202    2464.5951     2017.369    4481.9641    6476.1178   -36.556752   -8.3580946    269.07624   -191.54515          0.9          0.1         0.01      0.01782    -7.483714    269.07624   -20.714944 
 2893000    46478.474    134.63716    3326.9002    2465.3566    1982.8162    4448.1729    6703.2818   -5.6869281   -8.3580946    269.10749   -191.66758          0.9          0.1         0.01      0.01782    23.234477    269.10749   -20.563311 
 2893200    46478.474    133.02073    3297.1795    2435.7579    1956.9157    4392.6736    6627.6366   -26.090524   -8.3580946    268.77304   -191.63645          0.9          0.1         0.01      0.01782     3.017475    268.77304   -20.749905 
 2893400    46478.474    137.21278    3707.0212    2512.5191    1981.8017    4494.3208    7007.0913   -34.425225   -8.3580946    268.92969   -191.68722          0.9          0.1         0.01      0.01782   -5.0009042    268.92969   -21.066226 
 2893600    46478.474    133.61932    3426.2675    2446.7189     1959.504    4406.2228     6728.687   -39.348796   -8.3580946    268.97981   -191.69358          0.9          0.1         0.01      0.01782   -9.9819989    268.97981   -21.008702 
 2893800    46478.474    134.86858    4200.1211    2469.5943    1932.3983    4401.9926    7249.0063    -36.33916   -8.3580946    269.15427   -191.68569          0.9          0.1         0.01      0.01782    -7.498325    269.15427   -20.482741 
 2894000    46478.474    134.64877    3907.0749    2465.5692    1996.9059    4462.4751    7110.8501   -25.028749   -8.3580946    269.53563   -191.51844          0.9          0.1         0.01      0.01782    3.8552211    269.53563   -20.525876 
 2894200    46478.474    131.99363    4215.0069    2416.9508    1938.3654    4355.3162    7212.4201   -26.287429   -8.3580946    270.13734   -191.42804          0.9          0.1         0.01      0.01782    2.2914831    270.13734   -20.220817 
 2894400    46478.474    133.91367    3878.2815    2452.1087    1998.6274    4450.7361    7079.5938    -28.94927   -8.3580946    269.91878   -191.37491          0.9          0.1         0.01      0.01782  -0.42490148    269.91878   -20.166274 
 2894600    46478.474     131.8779    4051.3879    2414.8315    2002.7207    4417.5522    7163.7485   -19.052078   -8.3580946    270.16446   -191.41945          0.9          0.1         0.01      0.01782    10.191513    270.16446   -20.885497 
 2894800    46478.474    130.04135    4557.3587    2381.2022    1937.2548     4318.457     7407.621   -29.621791   -8.3580946    269.73251   -191.52561          0.9          0.1         0.01      0.01782   0.27187309    269.73251   -21.535569 
 2895000    46478.474    132.23818    4614.4388    2421.4287    2000.9361    4422.3649    7550.2201    -26.40617   -8.3580946    269.55793   -191.47541          0.9          0.1         0.01      0.01782    3.6160974    269.55793   -21.664173 
 2895200    46478.474    132.82418    4929.6446    2432.1591    2003.2546    4435.4137    7776.9282   -21.853087   -8.3580946     269.6266   -191.71214          0.9          0.1         0.01      0.01782    7.3362595     269.6266   -20.831251 
 2895400    46478.474    134.94895    3316.3777    2471.0659    1942.6753    4413.7411    6661.7175    -46.73963   -8.3580946    268.52441   -191.93887          0.9          0.1         0.01      0.01782   -17.445892    268.52441   -20.935644 
 2895600    46478.474    128.62803    4313.5653    2355.3228     2003.284    4358.6068    7282.5176    -25.61825   -8.3580946    268.62527   -191.85607          0.9          0.1         0.01      0.01782    3.4341098    268.62527   -20.694265 
 2895800    46478.474    132.98286    4515.1729    2435.0647    2015.2758    4450.3405    7510.9092    -40.89868   -8.3580946    268.66794    -191.7472          0.9          0.1         0.01      0.01782   -11.841259    268.66794   -20.699327 
 2896000    46478.474    132.17694    4582.4934    2420.3072    1974.4158     4394.723    7500.9243   -22.908932   -8.3580946    268.38771   -191.64177          0.9          0.1         0.01      0.01782    5.6682341    268.38771   -20.219071 
 2896200    46478.474    136.60389    4506.3181    2501.3696    1980.2797    4481.6494    7536.2159   -18.103777   -8.3580946    268.75521   -191.64503          0.9          0.1         0.01      0.01782    10.733343    268.75521   -20.479025 
 2896400    46478.474    133.38019    4404.8408    2442.3401     2002.101    4444.4411    7430.2222   -9.3380634   -8.3580946    268.86808   -191.54726          0.9          0.1         0.01      0.01782    19.947364    268.86808   -20.927333 
 2896600    46478.474     133.8735     3639.676    2451.3733    1965.2421    4416.6154    6883.7365   -25.165451   -8.3580946    269.30119   -191.33686          0.9          0.1         0.01      0.01782    4.3075049    269.30119   -21.114861 
 2896800    46478.474    134.12139    2771.6689    2455.9124    1940.9563    4396.8687    6275.6192   -12.442474   -8.3580946    269.34215    -191.3719          0.9          0.1         0.01      0.01782    17.306334    269.34215   -21.390714 
 2897000    46478.474    133.70271    3801.6407    2448.2458     1984.632    4432.8778    7009.7852   -8.5748266   -8.3580946    268.76306   -191.58647          0.9          0.1         0.01      0.01782    21.992211    268.76306   -22.208943 
 2897200    46478.474    133.69356    4307.5014    2448.0783    2011.1663    4459.2446     7379.045   -30.753366   -8.3580946    269.51111   -191.53221          0.9          0.1         0.01      0.01782   0.41857935    269.51111   -22.813851 
 2897400    46478.474    134.70643    4270.1622     2466.625    1926.1655    4392.7906     7287.281   -35.835078   -8.3580946    268.96872   -191.59714          0.9          0.1         0.01      0.01782   -5.1216959    268.96872   -22.355287 
 2897600    46478.474    134.97486    4475.8472    2471.5404    1971.4615    4443.0019    7476.9141   -27.819906   -8.3580946    268.52092   -191.53999          0.9          0.1         0.01      0.01782    2.1542201    268.52092   -21.616031 
 2897800    46478.474    132.49562    4418.0076    2426.1426    1939.1828    4365.3254    7360.0315   -26.062383   -8.3580946    268.91794   -191.73401          0.9          0.1         0.01      0.01782    3.4293185    268.91794   -21.133606 
 2898000    46478.474    132.15962    4420.6076    2419.9901    2005.1716    4425.1617    7421.6302   -16.625862   -8.3580946    268.71572   -191.64705          0.9          0.1         0.01      0.01782    12.619454    268.71572   -20.887221 
 2898200    46478.474    133.95811    3236.0908    2452.9225    1999.7034     4452.626    6646.1806   -11.174208   -8.3580946    269.53225   -191.68198          0.9          0.1         0.01      0.01782    18.295689    269.53225   -21.111802 
 2898400    46478.474    129.14167    3687.8145    2364.7281    1972.2638    4336.9919    6836.7433   -15.076633   -8.3580946    269.32336   -191.69771          0.9          0.1         0.01      0.01782    14.742745    269.32336   -21.461283 
 2898600    46478.474    132.28722    4914.2338    2422.3267    1976.6329    4398.9596     7730.028   -29.261783   -8.3580946      269.272   -191.73249          0.9          0.1         0.01      0.01782   0.92942204      269.272    -21.83311 
 2898800    46478.474    134.19496    4832.4851    2457.2595    1971.9326    4429.1921     7704.848   -24.865735   -8.3580946    269.97196   -191.75452          0.9          0.1         0.01      0.01782    5.6823884    269.97196   -22.190029 
 2899000    46478.474    133.07596    4623.8927    2436.7693     1936.062    4372.8314    7507.0948   -41.177108   -8.3580946    268.57758   -191.87554          0.9          0.1         0.01      0.01782   -10.534034    268.57758    -22.28498 
 2899200    46478.474    131.63474     4932.043     2410.379    1966.8353    4377.2143    7720.3546   -32.244366   -8.3580946    269.22609   -191.85625          0.9          0.1         0.01      0.01782   -1.4451498    269.22609   -22.441122 
 2899400    46478.474    131.79381    4681.9829    2413.2917    2023.2735    4436.5652    7610.2045   -21.150967   -8.3580946    268.96676    -191.8445          0.9          0.1         0.01      0.01782    9.8305765    268.96676   -22.623449 
 2899600    46478.474    133.29601    3557.0151    2440.7988    1926.9799    4367.7787    6778.8689   -39.511454   -8.3580946    268.96408   -191.77867          0.9          0.1         0.01      0.01782   -8.3800431    268.96408   -22.773317 
 2899800    46478.474     131.8254    3299.2649    2413.8703    1957.2127     4371.083    6607.4596   -34.020803   -8.3580946    269.27149   -191.62262          0.9          0.1         0.01      0.01782   -3.2654337    269.27149   -22.397275 
 2900000    46478.474     133.4905    4149.8324    2444.3601    1984.4187    4428.7788    7241.7048   -24.412979   -8.3580946    269.22729   -191.55642          0.9          0.1         0.01      0.01782    5.9378498    269.22729   -21.992734 
Loop time of 14862 on 24 procs for 2000000 steps with 6144 atoms

Performance: 11.627 ns/day, 2.064 hours/ns, 134.571 timesteps/s
95.6% CPU use with 24 MPI tasks x no OpenMP threads

MPI task timing breakdown:
Section |  min time  |  avg time  |  max time  |%varavg| %total
---------------------------------------------------------------
Pair    | 8164.8     | 8315.8     | 8588.1     | 109.3 | 55.95
Bond    | 81         | 86.563     | 97.868     |  47.6 |  0.58
Kspace  | 3183.3     | 3461.7     | 3596.1     | 169.6 | 23.29
Neigh   | 459.29     | 460.2      | 460.91     |   1.7 |  3.10
Comm    | 804.88     | 829.61     | 842.38     |  27.2 |  5.58
Output  | 1.297      | 1.377      | 3.0414     |  29.6 |  0.01
Modify  | 1576.5     | 1586.1     | 1594.4     |  10.6 | 10.67
Other   |            | 120.7      |            |       |  0.81

Nlocal:        256.000 ave         273 max         234 min
Histogram: 1 0 1 0 3 10 6 1 1 1
Nghost:        8514.42 ave        8558 max        8459 min
Histogram: 1 1 1 4 3 3 3 4 2 2
Neighs:         0.00000 ave           0 max           0 min
Histogram: 24 0 0 0 0 0 0 0 0 0

Total # of neighbors = 0
Ave neighs/atom = 0.0000000
Ave special neighs/atom = 4.0000000
Neighbor list builds = 48373
Dangerous builds = 0

write_data      data.${NAME}
write_data      data.ar
System init for write_data ...
PPPM initialization ...
  using 12-bit tables for long-range coulomb (../kspace.cpp:340)
  G vector (1/distance) = 0.26230706
  grid = 32 32 32
  stencil order = 5
  estimated absolute RMS force accuracy = 0.00030983815
  estimated relative force accuracy = 9.3306838e-07
  using double precision KISS FFT
  3d grid and FFT values/proc = 6210 2048
WARNING: Fix recenter should come after all other integration fixes (../fix_recenter.cpp:133)

write_restart   restart.${NAME}
write_restart   restart.ar
System init for write_restart ...
PPPM initialization ...
  using 12-bit tables for long-range coulomb (../kspace.cpp:340)
  G vector (1/distance) = 0.26230706
  grid = 32 32 32
  stencil order = 5
  estimated absolute RMS force accuracy = 0.00030983815
  estimated relative force accuracy = 9.3306838e-07
  using double precision KISS FFT
  3d grid and FFT values/proc = 6210 2048
WARNING: Fix recenter should come after all other integration fixes (../fix_recenter.cpp:133)






Total wall time: 4:07:42
