variable        infile index box.lmp
variable        mytemp index 200.0
variable        pressure index 1.0
variable        seed index 242321
variable	 dt index 1.0

units           real
special_bonds   lj 0.0 0.0 0.5 coul 0.0 0.0 0.8333
#neighbor        2.0 bin
#neigh_modify    delay 0 every 1 check yes page 1000000 one 20000
atom_style      full
pair_style	 lj/cut/coul/long 12.0

bond_style	 harmonic
dihedral_style	 charmm
angle_style	 harmonic
improper_style	 cvff

read_data       ${infile}
read_data       box.lmp
Reading data file ...
  triclinic box = (-3.4849999 -4.7570000 -4.8759999) to (3.4849999 4.7570000 4.8759999) with tilt (0.0000000 0.0000000 0.0000000)
  2 by 2 by 2 MPI processor grid
  reading atoms ...
  64 atoms
  scanning bonds ...
  3 = max bonds/atom
  scanning angles ...
  3 = max angles/atom
  scanning dihedrals ...
  4 = max dihedrals/atom
  scanning impropers ...
  1 = max impropers/atom
  reading bonds ...
  56 bonds
  reading angles ...
  72 angles
  reading dihedrals ...
  64 dihedrals
  reading impropers ...
  24 impropers
Finding 1-2 1-3 1-4 neighbors ...
  special bond factors lj:    0        0        0.5     
  special bond factors coul:  0        0        0.8333  
     3 = max # of 1-2 neighbors
     4 = max # of 1-3 neighbors
     6 = max # of 1-4 neighbors
     7 = max # of special neighbors
  special bonds CPU = 0.001 seconds
  read_data CPU = 0.008 seconds

kspace_style    pppm 1E-4
kspace_modify   mesh 32 32 32
pair_modify     mix arithmetic tail yes

timestep        ${dt}
timestep        1.0

minimize       1.0e-4 1.0e-6 100 1000
WARNING: Using 'neigh_modify every 1 delay 0 check yes' setting during minimization (../min.cpp:188)
PPPM initialization ...
  using 12-bit tables for long-range coulomb (../kspace.cpp:340)
  G vector (1/distance) = 0.30503442
  grid = 32 32 32
  stencil order = 5
  estimated absolute RMS force accuracy = 1.0237895e-05
  estimated relative force accuracy = 3.0831117e-08
  using double precision KISS FFT
  3d grid and FFT values/proc = 22599 4096
Neighbor list info ...
  update every 1 steps, delay 0 steps, check yes
  max neighbors/atom: 2000, page size: 100000
  master list distance cutoff = 14
  ghost atom cutoff = 14
  binsize = 7, bins = 1 2 2
  1 neighbor lists, perpetual/occasional/extra = 1 0 0
  (1) pair lj/cut/coul/long, perpetual
      attributes: half, newton on
      pair build: half/bin/newton/tri
      stencil: half/bin/3d/tri
      bin: standard
WARNING: Bond/angle/dihedral extent > half of periodic box length (../domain.cpp:935)
Per MPI rank memory allocation (min/avg/max) = 12.00 | 12.00 | 12.00 Mbytes
Step Temp E_pair E_mol TotEng Press 
       0            0    47.397747    203.81872    251.21646    146429.32 
      53            0    31.090265    2.6803248     33.77059   -603.81557 
WARNING: Bond/angle/dihedral extent > half of periodic box length (../domain.cpp:935)
Loop time of 0.259379 on 8 procs for 53 steps with 64 atoms

86.3% CPU use with 8 MPI tasks x no OpenMP threads

Minimization stats:
  Stopping criterion = energy tolerance
  Energy initial, next-to-last, final = 
       251.21646254237   33.7725510092122   33.7705897345951
  Force two-norm initial, final = 538.06155 2.4179016
  Force max component initial, final = 75.321287 0.44822852
  Final line search alpha, max atom move = 0.36828227 0.16507462
  Iterations, force evaluations = 53 106

MPI task timing breakdown:
Section |  min time  |  avg time  |  max time  |%varavg| %total
---------------------------------------------------------------
Pair    | 0.01312    | 0.013362   | 0.013685   |   0.1 |  5.15
Bond    | 0.00030564 | 0.00031836 | 0.00033083 |   0.0 |  0.12
Kspace  | 0.2278     | 0.2282     | 0.22852    |   0.0 | 87.98
Neigh   | 0          | 0          | 0          |   0.0 |  0.00
Comm    | 0.014635   | 0.014715   | 0.014799   |   0.1 |  5.67
Output  | 0          | 0          | 0          |   0.0 |  0.00
Modify  | 0          | 0          | 0          |   0.0 |  0.00
Other   |            | 0.002785   |            |       |  1.07

Nlocal:        8.00000 ave           8 max           8 min
Histogram: 8 0 0 0 0 0 0 0 0 0
Nghost:        3205.00 ave        3205 max        3205 min
Histogram: 8 0 0 0 0 0 0 0 0 0
Neighs:        4553.50 ave        4567 max        4540 min
Histogram: 4 0 0 0 0 0 0 0 0 4

Total # of neighbors = 36428
Ave neighs/atom = 569.18750
Ave special neighs/atom = 6.0000000
Neighbor list builds = 0
Dangerous builds = 0

velocity        all create ${mytemp} ${seed}
velocity        all create 200.0 ${seed}
velocity        all create 200.0 242321

replicate       4 4 4
Replicating atoms ...
  triclinic box = (-3.4849999 -4.7570000 -4.8759999) to (24.394999 33.299000 34.132000) with tilt (0.0000000 0.0000000 0.0000000)
  2 by 2 by 2 MPI processor grid
  4096 atoms
  3584 bonds
  4608 angles
  4096 dihedrals
  1536 impropers
Finding 1-2 1-3 1-4 neighbors ...
  special bond factors lj:    0        0        0.5     
  special bond factors coul:  0        0        0.8333  
     3 = max # of 1-2 neighbors
     4 = max # of 1-3 neighbors
     6 = max # of 1-4 neighbors
     7 = max # of special neighbors
  special bonds CPU = 0.001 seconds
  replicate CPU = 0.004 seconds

dump            1 all custom 10000 ${NAME}.lammpstrj id type xu yu zu
dump            1 all custom 10000 ar.200.lammpstrj id type xu yu zu
thermo_style    custom step vol temp press ke pe ebond eangle edihed eimp emol evdwl etail ecoul elong enthalpy density cella cellb cellc cellalpha cellbeta cellgamma
thermo          200

fix             1 all recenter INIT INIT INIT units box

fix             2 all npt temp ${mytemp} ${mytemp} $(100.0*dt) tri ${pressure} ${pressure} $(1000.0*dt)
fix             2 all npt temp 200.0 ${mytemp} $(100.0*dt) tri ${pressure} ${pressure} $(1000.0*dt)
fix             2 all npt temp 200.0 200.0 $(100.0*dt) tri ${pressure} ${pressure} $(1000.0*dt)
fix             2 all npt temp 200.0 200.0 100 tri ${pressure} ${pressure} $(1000.0*dt)
fix             2 all npt temp 200.0 200.0 100 tri 1.0 ${pressure} $(1000.0*dt)
fix             2 all npt temp 200.0 200.0 100 tri 1.0 1.0 $(1000.0*dt)
fix             2 all npt temp 200.0 200.0 100 tri 1.0 1.0 1000

run             2000000
PPPM initialization ...
  using 12-bit tables for long-range coulomb (../kspace.cpp:340)
  G vector (1/distance) = 0.26541774
  grid = 32 32 32
  stencil order = 5
  estimated absolute RMS force accuracy = 0.00031767631
  estimated relative force accuracy = 9.5667276e-07
  using double precision KISS FFT
  3d grid and FFT values/proc = 12167 4096
WARNING: Fix recenter should come after all other integration fixes (../fix_recenter.cpp:133)
Per MPI rank memory allocation (min/avg/max) = 12.43 | 12.43 | 12.43 Mbytes
Step Volume Temp Press KinEng PotEng E_bond E_angle E_dihed E_impro E_mol E_vdwl E_tail E_coul E_long Enthalpy Density Cella Cellb Cellc CellAlpha CellBeta CellGamma 
      53    41387.536    196.92308    2051.7506    2403.7252    2161.3386    13.253362    152.29217    5.3586821   0.63657094    171.54079   -3680.7323   -93.862435    25372.538   -19702.008    5803.4897    1.1516434    27.879999       38.056    39.007999           90           90           90 
     200    42120.878    123.79094     3687.596    1511.0439    3355.8805    336.71519    526.14453    201.76872    47.946692    1112.5751   -3494.5536    -92.22825    25436.794   -19698.935     7132.177    1.1315928    27.899358    38.491558    39.222899    90.021942    89.905539    89.857701 
     400    43497.088    160.23753    2268.6593    1955.9262    3561.1581    305.03721    301.55657    408.63844    39.356022    1054.5882   -3408.0429   -89.310229    25611.701   -19697.088    6956.2319    1.0957902    27.925531    39.224715    39.711229    90.116994    89.777143    89.607953 
     600    42691.356    191.76001    2140.2753    2340.7027    3959.5567    417.59551    466.52589    370.21042    70.446587    1324.7784    -3238.945    -90.99582    25570.426   -19696.703    7632.8154    1.1164716    27.744031    38.810825    39.650952    90.472272    89.827701    89.460109 
     800    43801.014    199.87502   -6387.7048    2439.7579    4562.6276    772.61715    660.65407    461.60133    85.769259    1980.6418   -3326.8774   -88.690524     25604.91   -19696.047    2921.9652    1.0881868    27.953429    39.095297     40.08023    89.993279    90.024364    89.708585 
    1000    44209.624    220.48945   -9851.4531    2691.3862    4652.7855     980.5851    727.19261    318.39457     17.82551    2043.9978   -3183.8796   -87.870797    25486.447   -19693.779     992.4274    1.0781291    28.160561    39.207453    40.041769    89.842014    89.943758    89.739007 
    1200    44447.952    167.56249   -1795.4968    2045.3376     5140.305    732.24527    1169.6088    475.98751    76.804633    2454.6462   -3104.2473   -87.399637    25483.882   -19693.976    6021.7517    1.0723483    28.286119    38.968923    40.325821    90.397974    89.873026    89.580465 
    1400    44414.467    214.23379   -563.91791     2615.027    4501.5484    671.26157    763.45505     457.8345    37.416401    1929.9675   -3263.0415   -87.465529    25532.036   -19697.413    6751.3036    1.0731567    28.379069    38.793256    40.345219    90.150054    89.903047    89.451892 
    1600    44181.409    205.03038    883.65747    2502.6864    4630.3372    769.95684    701.66249    493.51492     69.90636    2035.0406   -3183.0294   -87.926913    25473.013   -19694.687    7702.3999    1.0788177    28.230796    38.693793    40.447514    90.336799    89.898822    89.641615 
    1800    44894.032    175.90414   -8303.0362    2147.1593    5176.6725    957.15921    781.73917    554.29818    75.756473     2368.953   -3255.6283   -86.531209    25758.544   -19695.197    1887.5566    1.0616931    28.111589    39.046539    40.901546    90.438831    89.954482     89.69466 
    2000    44491.086    225.90829   -3723.8442    2757.5308    4488.8158    543.50858    900.16296    326.28638    98.270381    1868.2283   -3190.0132   -87.314904    25504.056   -19693.456    4830.1048    1.0713086    28.069073    38.841671    40.811482    90.668153    89.768934    89.817131 
    2200    44329.983    193.32512    4510.9335     2359.807    4675.1021    839.98599    665.92395    411.99335    68.850659    1986.7539   -3245.2187   -87.632221    25625.735   -19692.169    9951.2607    1.0752019    28.319592    38.586555    40.573569    90.996576    90.003908    89.788772 
    2400    44805.723    192.80684    11073.163    2353.4807     4863.717    770.16265      821.206    357.04273    47.878242    1996.2896   -3049.7277   -86.701757     25611.66   -19694.505    14452.906    1.0637856    28.306775    38.926935    40.665268    90.545428     90.18409     89.63289 
    2600    45195.039    185.92788    1532.2502    2269.5133    5045.3384     696.3538    734.96393    534.38276    71.271183    2036.9717   -3141.0134   -85.954896    25837.863   -19688.483    8324.7934     1.054622    28.156266    39.335722    40.810622    90.437493    90.621767    89.684038 
    2800     44588.09    180.65937   -5490.6154    2205.2036    5008.2953    978.97174    677.79711    466.86994    79.812114    2203.4509   -3045.8261   -87.124944    25542.016   -19691.345    3643.1078    1.0689779    27.991916    39.339367     40.49375    90.352847    90.547605    90.122973 
    3000    44661.416    180.97105   -3212.4207    2209.0081    4944.3419    911.45038    894.93996    398.36314    82.495774    2287.2493   -3227.2609   -86.981903    25574.202   -19689.848    5060.9689    1.0672229    28.057904    39.278418    40.530856     89.45373    90.799604    90.091574 
    3200    44116.361    216.61328    13140.642    2644.0721    4552.4054    580.80802    646.44266    467.58397    65.043239    1759.8779   -3099.7941   -88.056558    25581.468   -19689.146     15651.06    1.0804083    28.184672    38.998128    40.140472    89.676087    90.690612    89.878181 
    3400    44395.207    187.56895    14658.273    2289.5448    4818.0428    861.31461     587.5338    489.88552    107.85674    2046.5907   -3165.1427   -87.503474    25629.077   -19692.482    16598.212    1.0736223    28.118329    39.247968    40.231478    89.998911    90.734542    89.883908 
    3600    44528.815    204.35159    3088.2225    2494.4008    4778.9708    820.01395    640.71763    455.24149    65.584355    1981.5574   -3149.7079   -87.240922    25636.698   -19689.577    9278.8852    1.0704009    28.147153    39.308017    40.248299     89.94259    90.563836    90.107956 
    3800     45347.41    203.74566   -10824.733    2487.0045    4957.4576    838.11603    789.29314    423.32087    49.673448    2100.4035   -3001.8426   -85.666081    25541.696   -19682.799    285.57413    1.0510784    28.169045    39.465416    40.792174      90.1698    90.346755    90.222759 
    4000     45442.26    197.93253    -12003.75    2416.0471    4805.1961    995.35693    646.52356    332.95999    104.21981    2079.0603   -3148.9288   -85.487272    25569.573   -19694.508   -733.98722    1.0488845    28.083502    39.583953    40.880682    90.555862    90.195891    90.290733 
    4200    44523.444    223.31641   -4125.8993    2725.8933     4231.619    647.64602    702.16416    313.20932    18.867118    1681.8866   -3218.2622   -87.251447    25459.502   -19691.507    4278.4472      1.07053    28.006518    39.283846    40.468695     89.97757    90.091141    90.212604 
    4400    44533.804    181.46944    3465.6351    2215.0917    4968.4465    875.24719    840.83178    498.90791    113.12844    2328.1153   -3096.0066   -87.231149     25430.73   -19694.392    9434.3984     1.070281    27.852557    39.635485    40.342375    89.931367    90.271237    90.488087 
    4600    44552.346    226.98696   -830.01565    2770.6975    4609.3394    631.29647    655.92738    470.28748      31.5744    1789.0857   -3238.6528   -87.194845    25756.235   -19697.329     6840.734    1.0698356    27.934565    39.614211     40.26506    90.551279    90.340147     90.58564 
    4800    44041.859    199.84824   -6015.4042     2439.431    4686.1449    620.68849    779.42494    424.05341     89.37973    1913.5466   -3212.2222   -88.205515    25677.665   -19692.844    3261.8496     1.082236    27.897275    39.155992     40.32166    90.133952    90.329426    90.606707 
    5000    44281.095    189.81614    872.33366     2316.975    4957.7579    878.55282    644.23199    585.06349    37.697276    2145.5456   -3151.7575    -87.72897    25659.896   -19695.927    7838.0811     1.076389    27.836965    39.194984    40.586821    90.422162    90.249349    90.216604 
    5200     44122.27    210.78247    2929.9819    2572.8988    4542.2418    719.94618    787.26038    416.65438    70.158209    1994.0192   -3325.0123   -88.044764    25570.198   -19696.963    9000.5196    1.0802636    27.716714     39.16019    40.651383    90.186706    90.121292    90.104181 
    5400     43816.56    180.34256    11897.524    2201.3365    4886.3945    726.70787    848.12137    484.74971    68.507272    2128.0862   -3045.0282   -88.659057    25500.088   -19696.752    14690.482    1.0878007    27.715848    39.059611    40.476703    90.359348    90.386928    90.258156 
    5600    44649.715    182.53715   -2395.4339    2228.1246    5100.5828    783.92191    906.99994    623.96632    35.801137    2350.6893   -3152.8136   -87.004697    25598.728   -19696.021    5768.8721    1.0675025    27.893453    39.295652    40.737147    90.080768    90.458438    90.255992 
    5800     44373.73    182.95176   -10320.734    2233.1855    4923.1927    949.42066    954.87091    439.24681    47.382096    2390.9205   -3274.1828   -87.545827    25499.734   -19693.279    477.36364    1.0741419    27.919184    39.087873    40.662464    89.711138    90.319527    90.062949 
    6000    44160.288    192.22355    1024.5301    2346.3608    4817.5334     645.2056    1157.9551    274.63703    38.122544    2115.9203   -3214.2928   -87.968966     25608.21   -19692.304    7823.7249    1.0793336    27.947556    39.116215    40.395791    89.829786    90.175157    89.881566 
    6200     44128.72    192.67716    12845.465    2351.8978    4865.3218    887.53802    702.36676    457.03809    58.952305    2105.8952   -3209.2564   -88.031897    25654.339   -19685.656    15484.203    1.0801058    28.011194    38.998342     40.39879    90.463923     89.92339    89.608426 
    6400     43855.13    202.47255    12116.359    2471.4644    4660.5743    695.70828    893.34164    345.08652    23.523665    1957.6601   -3184.7243   -88.581083    25572.273   -19684.635    14881.445     1.086844    28.000969    38.909311    40.254442    90.397653    89.950003    89.623774 
    6600    44471.079    190.63811   -2074.5711    2327.0083    4809.7008    695.93129    942.43988     454.3136    51.662833    2144.3476   -3095.9013   -87.354185    25450.212   -19688.957    5791.2148    1.0717906    28.220654    39.047389    40.358659    90.522644    90.025728    90.014831 
    6800    45003.714     196.3605   -11216.218    2396.8582    4763.2556    885.84813    749.37374    413.52643    59.056495    2107.8048   -3140.6443   -86.320318    25487.448   -19691.353   -201.46025    1.0591056    28.228297    39.487791    40.374959    90.261186    90.045171    89.683792 
    7000    44594.914    199.21356   -2128.5649    2431.6838    4895.4568    891.17036    697.93226    460.89352    38.761864     2088.758   -3197.2653   -87.111614    25694.802   -19690.838    5942.7836    1.0688144    28.170139    39.141064    40.445701    89.999563    90.054893    89.642638 
    7200    44142.962    181.25391    7215.6605    2212.4608      4957.02    769.44417    1015.8171    480.57483    39.024146    2304.8603   -3200.6842   -88.003494    25549.355   -19696.511    11814.777    1.0797573    28.089642    39.009232    40.287041    90.409075    89.910856    89.701747 
    7400    43781.108    193.94674    4952.0309    2367.3948    4791.4775    921.34182    803.84388    298.73118    64.438552    2088.3554   -3236.3888    -88.73085    25633.028   -19693.517    10320.757    1.0886815    28.013786    38.892848    40.183789    90.246238    89.891128    89.884714 
    7600     43856.17    220.86019   -6499.6144    2695.9116    4490.8316    667.02195     701.2757    518.99118     22.07335    1909.3622   -3259.3573   -88.578983    25533.109   -19692.282    3029.6078    1.0868182    28.154096     38.81988    40.127188    90.023782    89.893656    89.786264 
    7800     44101.77    201.22932   -13679.389    2456.2891    4602.5873    807.25457     807.0187     481.2799    22.941527    2118.4947   -3226.7482   -88.085692    25408.675   -19697.834   -1739.4206    1.0807658    28.161516    38.939892    40.220294    89.464802    89.965505    89.436704 
    8000    44514.627    194.95867   -3303.0621    2379.7469    4791.4347    945.75049    765.41707    260.61984    43.088447    2014.8758   -3028.5598   -87.268728    25503.838    -19698.72    5026.8331    1.0707421    28.136448     39.29107    40.266972    89.807217    90.051362    89.681666 
    8200    44138.551    179.83682    10711.122    2195.1632    4949.5142    710.45041    917.56052    524.75194     54.64261    2207.4055     -3184.37   -88.012289    25623.055   -19696.576    14039.592    1.0798652    28.083277    38.959373    40.343002    90.231474    90.179442    89.747393 
    8400    44097.768    180.18292    9246.7004    2199.3878    4918.4167    826.06201     858.8825    538.69616    105.20298    2328.8436   -3287.0742   -88.093686    25569.883   -19693.236    13064.549    1.0808639     28.14659    38.873333    40.304746    90.356342    90.328274    89.841732 
    8600    43903.468    186.57055    1545.4491    2277.3579    4839.8784    812.72089    828.28989    511.63075    75.008911    2227.6504   -3200.1037   -88.483553    25507.948   -19695.617    8106.7673    1.0856474    28.083713    38.810052    40.282136    89.993975    90.426985    89.926308 
    8800    44517.229    204.44575   -4379.6649    2495.5501    4723.4376     837.8171    691.11319    391.96852    56.312995    1977.2118   -3214.6255   -87.263628    25657.755   -19696.903    4375.5423    1.0706795    28.048859    38.963082    40.735027    90.126648    90.295594    90.152141 
    9000     43871.52    199.08668   -1261.2678     2430.135    4742.2228    713.53555    819.14372    509.84064    66.970254    2109.4902   -3098.8065   -88.547989    25428.659   -19697.119    6365.3721    1.0864379    28.055517    38.483754    40.634806    89.988214    90.374002    90.171489 
    9200    44418.953    194.73529    -648.1088    2377.0202    4809.1223    940.21569    820.64944    505.34602    47.001741    2313.2129   -3200.9458   -87.456696    25393.993   -19697.138    6766.2944    1.0730483    28.190371    38.735258    40.679562    89.955582     90.32341    90.351003 
    9400    44516.596    189.57045     2465.477    2313.9759    4884.6376    679.93843    836.89402    687.86938    105.79519     2310.497   -3277.8323   -87.264869    25544.184   -19692.211    8799.2725    1.0706947    28.247721    38.798817    40.619722    89.682059    90.184628     90.34787 
    9600    43796.114    222.36408   -574.32737    2714.2687    4477.1537    683.25759    693.03352    338.23948    48.552678    1763.0833   -3192.7777   -88.700448     25595.89   -19689.042    6824.5872    1.0883085     28.06652    38.492008    40.541237    89.761153    90.130549    90.487095 
    9800    44066.959    204.15717   -10850.145    2492.0276    4658.6532    945.12439    645.36909    480.11759    48.774843    2119.3859   -3217.2031   -88.155274    25449.563   -19693.092    177.60277    1.0816195    28.160965     38.50501    40.642168    89.862646    90.188297    90.614806 
   10000    44425.723    204.79763   -9222.3795    2499.8454    4654.6295    798.20208    665.50394    467.52859     76.88071    2008.1153   -3225.9696    -87.44337     25565.87   -19693.387    1179.2619    1.0728848    28.226178    38.702753    40.668112    89.740901     90.22243    90.295374 
   10200    44383.646    202.65584    3403.9552    2473.7017    4771.7143    822.95964    723.39622    549.54792    66.272558    2162.1763   -3206.8627   -87.526267    25509.054   -19692.653     9448.762    1.0739019    28.116307    38.896542    40.584701    90.019637     90.24646    90.263371 
   10400    44189.825    201.17773    8164.2708    2455.6593    4710.6812    761.50703    672.34075    508.37319     87.08741    2029.3084   -3214.0318   -87.910167    25587.425    -19692.02    12427.913    1.0786122    28.059924    38.903532     40.48171     89.96586    90.264595    90.334486 
   10600    44057.073    214.43007    5044.2996    2617.4229    4562.9761    738.04266    635.69297    472.31883    79.179445    1925.2339   -3231.5445   -88.175056    25559.839   -19690.553    10421.499    1.0818623    28.061003    38.862915    40.400493    90.021426     90.17935    90.334912 
   10800    44208.418    193.40306   -3136.8579    2360.7584     4725.942    855.17092    634.58822    492.95824    74.922431    2057.6398    -3210.324   -87.873194    25568.304   -19689.678    5064.2602    1.0781586    28.129001    38.933266    40.367952    89.959542    90.161894    90.276335 
   11000    44269.894    204.97734    -4551.726     2502.039     4694.927    842.78331     672.1194    474.04445    70.491128    2059.4383   -3232.7308   -87.751168    25558.811   -19690.592    4258.2306    1.0766614    28.114725    39.046003    40.327384    89.930892    90.158496    89.989167 
   11200    44093.406    207.73257    1212.6428    2535.6705    4641.0741    771.14326    708.02006    487.40003    74.381665     2040.945   -3221.6942     -88.1024    25511.695   -19689.871    7956.5432    1.0809708     28.08035    39.014345    40.248375    90.050038    90.139638     89.96236 
   11400    44049.589    196.90546    7213.2253    2403.5102    4687.7808    911.24288    689.92217    444.00178    62.008634    2107.1755   -3230.4743   -88.190037    25502.273   -19691.193    11725.197    1.0820461    28.171765     38.93768    40.156794    89.935675    90.078226    90.097264 
   11600    44336.463    208.70956    4221.7249    2547.5959    4610.9619    742.97016    690.85934    463.28141    79.008857    1976.1198   -3238.6848   -87.619413    25563.843   -19690.316     9888.333    1.0750448    28.253218    39.053891    40.181765    89.970201    89.993526    90.043701 
   11800    44272.626    200.87255   -1048.0556    2451.9342    4776.3781    808.79894    729.92741    468.03625    72.447075    2079.2097   -3225.7464   -87.745753    25611.945    -19689.03    6551.6133    1.0765949    28.226108    39.045317    40.171365    89.945296    89.874596    89.984145 
   12000    44109.659     201.6781   -1870.0397     2461.767     4696.059    809.30436     672.6265    486.22851    76.634874    2044.7942   -3220.0525   -88.069937    25560.863   -19689.545    5954.8403    1.0805725    28.128224    38.952149    40.259087    89.901268    89.801235    89.897212 
   12200    44114.793    201.69623    151.18083    2461.9884    4642.9299     766.9957    695.86094    477.88178    71.016284    2011.7547   -3211.0511   -88.059689    25532.491   -19690.265    7202.1833    1.0804467    28.125019    38.894956    40.327623    89.904116    89.782182     89.89337 
   12400    44227.567    199.31915    2235.5653    2432.9727    4779.1026    833.50502    787.69657    464.49844     68.48498     2154.185   -3201.3336   -87.835147    25515.836   -19689.585    8654.0455    1.0776917    28.212029    38.865459    40.336698    89.874511    89.755582    89.919144 
   12600    44474.503    204.27617    946.99649    2493.4801    4718.9349    798.39879    721.47176    474.38871    75.590344    2069.8496   -3211.3854    -87.34746    25549.774   -19689.304    7826.6512    1.0717081    28.346885    38.896671    40.336517    89.881515     89.77603    89.888984 
   12800    44345.875    196.03518   -3134.1216    2392.8872    4729.6188    806.58296      726.065    468.01792    69.177187    2069.8431   -3212.8033   -87.600816    25562.498   -19689.919     5095.547    1.0748166     28.38905    38.782366    40.278302    89.791417    89.948121    89.978502 
   13000     43937.86    201.38298   -3781.3641    2458.1646    4768.7572    841.82926    711.08518    472.03516    71.508441     2096.458   -3198.5141   -88.414294     25559.53   -19688.717    4803.8668    1.0847976    28.352962    38.697276    40.046567    89.822591    90.167262    90.139445 
   13200    44200.699    203.52248    404.44641    2484.2802    4704.5321    775.52381    733.85495    470.25655    73.981522    2053.6168   -3221.1404   -87.888539    25562.241   -19690.185    7449.5274    1.0783468    28.373406    38.859916    40.090325    89.902248    90.442145    90.393443 
   13400     44620.82    201.02274    3610.2289    2453.7675    4712.2705     773.6441    776.44436    448.40395    72.158888    2070.6513   -3210.9313   -87.061038    25542.437   -19689.886    9515.3904    1.0681938    28.369019    39.030479    40.303278    89.892977    90.647137    90.585135 
   13600    44475.417    205.41854    2690.6129    2507.4244    4783.1071    830.00033    711.76035     493.1481    70.317917    2105.2267    -3157.633   -87.345666    25523.846   -19688.333    9035.7393    1.0716861    28.238484    39.041896    40.347927     89.90149    90.751167    90.733848 
   13800    44427.622    198.76359   -2139.2869    2426.1913    4759.4999    841.97393    712.64851    458.48639    74.442813    2087.5516    -3198.838   -87.439631    25559.628   -19688.842    5799.5802     1.072839    28.108316    39.089828    40.442097    89.965226    90.678519    90.857943 
   14000    44143.684    202.24251   -3165.3479    2468.6565    4689.5728    840.15534    688.20356    453.42153    66.706603     2048.487   -3213.2526   -88.002054    25544.868   -19690.529    5120.4088    1.0797396    27.964804    39.027872    40.452079    90.068174    90.399581    90.851763 
   14200    43961.642    202.89443   -201.31065    2476.6141    4598.2183    797.23029    680.11659     437.3886    71.088111    1985.8236    -3233.495   -88.366465    25536.459   -19690.569     6945.765    1.0842107    27.915869    38.924806    40.459866    90.081414    89.910742    90.641029 
   14400    44343.597    198.83277    2936.6485    2427.0358     4737.242     811.2849    741.28286     454.3096    67.946928    2074.8243   -3205.0515   -87.605318    25556.136   -19688.666    9063.4256    1.0748719     28.12509    38.944174    40.487558    90.058354    89.416627    90.257036 
   14600    44628.484    201.25701    2532.5277     2456.627    4772.6428     802.2348    737.55642    472.09443    74.562425    2086.4481   -3191.8516   -87.046088    25567.103   -19689.057    8877.5925    1.0680104    28.292124    38.941833    40.511449    90.033313    89.152793     89.97791 
   14800    44482.967    203.71345    128.17397    2486.6114    4756.9298     792.9714    720.46991    464.10995    73.978602    2051.5299   -3165.5278   -87.330841    25561.333   -19690.406    7326.6926    1.0715042    28.310015    38.882787    40.415357    89.924709    89.149708    89.826631 
   15000    44362.832    197.52705   -1956.9856    2411.0976    4736.4094    822.99223    702.92631    467.76553    71.532879    2065.2169    -3194.916   -87.567333    25556.077   -19689.969    5881.3639    1.0744058    28.289916    38.901987    40.313974    89.825856    89.282592    89.759844 
   15200    44254.226    205.37972   -522.52884    2506.9506    4722.7415    820.35644    715.20419     442.3878    73.198627    2051.1471   -3217.1125   -87.782236    25578.059   -19689.352    6892.4507    1.0770426    28.280555    38.933112    40.194877    89.737281    89.554852    89.714215 
   15400    44386.217    196.36319     1041.845     2396.891    4725.7872    782.91005    759.16112    464.62119    65.057031    2071.7494   -3198.3868   -87.521199    25542.724   -19690.299     7797.093    1.0738398    28.348327    38.978546    40.170281     89.73947    89.898863    89.734349 
   15600    44512.847    198.92568    775.22924    2428.1698     4716.709    785.08595    747.09648    455.60894    71.109889    2058.9013   -3196.2862   -87.272218    25543.641   -19689.547    7648.1376    1.0707849     28.39677    39.001373    40.192421    89.837883    90.234428    89.815452 
   15800    44437.194    203.99325   -534.51518    2490.0267    4725.6848    801.69396    725.43709    464.76037    74.587204    2066.4786   -3203.1453   -87.420796    25550.751   -19688.399    6869.3077    1.0726079    28.326745    38.945307    40.282328    89.924847    90.537962    89.942497 
   16000    44343.591     198.0323   -1668.2118    2417.2649    4722.2898    782.16312    696.82064    486.67449    77.654888    2043.3131   -3188.2658   -87.605329    25555.974   -19688.731    6060.7124     1.074872    28.256236    38.879733    40.366949     90.04059    90.700726    90.028096 
   16200    44385.971    196.09719    -1097.074    2393.6441    4733.1977    796.17955    734.44651    457.06572    75.413044    2063.1048   -3185.3799   -87.521684    25543.777   -19688.304    6416.6796    1.0738457    28.242355    38.826649    40.480371    90.092022    90.647378    90.139525 
   16400    44470.842    198.91737    1106.9861    2428.0684    4771.1546    799.90366    728.04099    461.10452    77.954746    2067.0039   -3174.0411   -87.354652     25567.05   -19688.858    7917.1717    1.0717963     28.27397    38.792454    40.546908    90.131298    90.357509    90.320894 
   16600    44710.211     201.0423    1606.6728    2454.0061    4809.3535     807.7239    743.91259    472.90179    79.807486    2104.3458   -3182.9056   -86.886972    25576.134    -19688.22    8310.9948    1.0660581     28.29313    38.824739     40.70425    90.014276    89.885145      90.5727 
   16800    44545.516    201.54834    167.68335    2460.1831    4742.8921    811.41534    743.07163    455.71268    75.035425    2085.2351   -3196.4109   -87.208214     25544.04   -19689.972    7312.0109    1.0699996    28.229075    38.738487    40.739974    89.889133     89.45557    90.732886 
   17000    44386.275    199.36801   -621.08755    2433.5691    4708.7151    810.68182    688.93668    456.73813    71.108797    2027.4654   -3206.1045   -87.521083    25576.478   -19689.124    6740.2366    1.0738383    28.217009    38.736116    40.616542    89.725204    89.171306    90.679131 
   17200    44314.547    203.44556   -597.44098    2483.3414    4763.9845    816.77958    710.64945    470.54447    82.135034    2080.1085   -3183.6766   -87.662746    25556.823   -19689.271    6861.2104    1.0755765    28.283754    38.758659    40.431634    89.720598    89.071441    90.525204 
   17400     44514.02     198.2298   -438.02363    2419.6757    4783.9901    811.91816    719.71808     471.4311    77.136817    2080.2041   -3175.5674   -87.269919    25568.894   -19689.541    6919.3047    1.0707567    28.468463    38.831812    40.271747    89.932918    89.150708    90.331681 
   17600     44765.83    197.41542    1287.1023    2409.7349    4793.2501    804.92595    734.03013    471.26458    73.393572    2083.6142   -3157.7515   -86.779021    25555.048   -19687.661    8043.2874    1.0647336    28.535313    38.974074     40.25462    90.015582    89.360281    90.083324 
   17800    44492.178    200.46725    904.05045    2446.9869    4760.0127    797.35978    720.56913    466.31284    78.334622    2062.5764    -3174.326    -87.31276    25561.692   -19689.929    7793.6134    1.0712823     28.41498    38.968731    40.182144     90.24456    89.651694    89.874089 
   18000    44207.813    198.20285    679.37996    2419.3467    4754.5648    815.79393    719.95143      466.786    69.234407    2071.7658   -3186.8216   -87.874396    25558.876   -19689.255    7611.9251    1.0781733    28.286649    38.921348    40.155207    90.298847    89.957526    89.694654 
   18200        44343    193.19974   -735.94356    2358.2767    4702.4183    800.44845    717.83372     446.6969    69.167646    2034.1467   -3213.3456   -87.606497    25570.347    -19688.73    6584.7624    1.0748863    28.247522    38.942036    40.312716     90.16389    90.253537    89.611036 
   18400    44375.931    201.29857   -425.13668    2457.1344    4723.4886     813.0446    712.39809     441.5191    78.546683    2045.5085   -3187.3023   -87.541486    25554.935   -19689.653    6905.4841    1.0740887    28.189199    38.889529     40.48111    89.875201    90.408895    89.647385 
   18600    44556.926    199.69939   -942.83045    2437.6141    4789.9602    828.48052    740.80055    458.05508    67.631868     2094.968   -3182.9078   -87.185882    25566.924   -19689.024     6614.907    1.0697256    28.187904    38.902728    40.634823    89.689607    90.471093    89.729105 
   18800    44557.419    201.35894   -692.39497    2457.8712    4727.6577    790.98119     717.9384    445.60302    76.313943    2030.8366   -3171.3704   -87.184917     25556.99   -19688.799    6735.5938    1.0697138    28.216098    38.864065    40.634146    89.781633    90.396029    89.797116 
   19000    44420.318    197.44369    169.23924      2410.08    4749.1433    789.61298    724.47226    457.21429    76.764124    2048.0637   -3160.3214    -87.45401     25549.56   -19688.159    7268.8607    1.0730154    28.288741    38.719794    40.554492    90.031628    90.208613    89.875927 
   19200     44546.43    202.80894   -172.96962    2475.5706    4775.0258    825.65042    735.15458    447.14103    71.398385    2079.3444   -3187.4283   -87.206425    25572.321   -19689.212    7138.2242    1.0699776    28.417903    38.692737    40.513433    90.335126    89.983362    89.948782 
   19400    44569.803      198.944   -143.36667    2428.3934    4756.6849    798.04706    709.01184    457.88096    82.469148     2047.409   -3173.2784   -87.160693    25571.383   -19688.828    7091.8893    1.0694165     28.49653    38.683441    40.433135    90.359752    89.726994     90.06855 
   19600    44564.164    197.68475    249.00848    2413.0225    4790.1259    834.27763    729.95895    460.12364    74.925005    2099.2852   -3180.3461   -87.171721     25559.67   -19688.483    7364.9846    1.0695518    28.464986    38.749241    40.404276    90.201835    89.579756    90.144736 
   19800     44533.28    202.61501    259.97982    2473.2034    4781.0788     809.9046    733.79236    453.68393    79.558749    2076.9396   -3185.2983   -87.232176     25577.71   -19688.273    7423.1318    1.0702936    28.364861    38.824789     40.44043      89.8765    89.494987    90.210904 
   20000    44606.908    197.66605     876.0943    2412.7942    4748.9246     792.7335    712.20431    465.17205    75.054949    2045.1648   -3160.2457   -87.088191    25552.364   -19688.358    7731.6585     1.068527    28.266648    38.949237    40.518628    89.631504    89.535481    90.195795 
   20200    44692.227    198.49498      604.331    2422.9126    4798.5472     817.5525    727.12569    457.71331    72.512102    2074.9036   -3180.9934   -86.921936    25592.084   -19687.447    7615.3568    1.0664871    28.113888    39.129769      40.6274    89.677145    89.683818    90.159602 
   20400    44491.371    203.52447     968.2547    2484.3046     4808.752    815.06847    727.04158    457.47069    77.953934    2077.5347   -3151.7305   -87.314344    25571.374   -19688.426    7921.3194    1.0713018    28.010865    39.070581      40.6538    89.877465    89.898708    90.031747 
   20600     44698.75    200.43535   -219.74714    2446.5975    4767.8561    814.98094    712.99318     456.2709    67.338929    2051.5839   -3158.4733   -86.909251    25561.347   -19686.602    7071.2037    1.0663315    28.154916    38.983905     40.72515    90.248319    90.155958    89.865391 
   20800    44701.085    200.18424   -1253.0722    2443.5324    4749.1705    804.98292    750.43588    419.64757    70.361417    2045.4278   -3171.4422   -86.904711    25562.234   -19687.049    6375.8007    1.0662758    28.354109    38.760003    40.676431    90.411794    90.419769    89.836312 
   21000    44606.314    202.47093   -1326.3895    2471.4446    4812.8763    822.65727    743.31662    456.46058    67.394727    2089.8292   -3153.7513    -87.08935    25564.058    -19687.26    6421.4551    1.0685412    28.458663    38.600366    40.609351    90.389921    90.583961    89.782381 
   21200    44771.257    198.35931   -1648.8092    2421.2565    4763.1118     815.2655    709.12732    446.13529    69.845897     2040.374   -3158.2991   -86.768501    25570.017    -19688.98      6107.79    1.0646045    28.554269    38.585538    40.638038    90.176595    90.602233    89.785244 
   21400    44670.049    199.52374   -426.80879      2435.47    4768.9489    828.31378    714.03197    435.84731    68.459791    2046.6528    -3167.898   -86.965092     25579.61   -19689.416    6926.3671    1.0670166     28.50814    38.599464    40.596273    89.879242     90.51374    89.852192 
   21600    44590.008    201.34465    1101.1906    2457.6968    4801.7124    815.05534    712.67239    460.42285    69.732588    2057.8832   -3156.7248   -87.121198    25587.446   -19686.892    7975.5129     1.068932    28.411102    38.661578    40.595872     89.71811    90.308097    89.920043 
   21800    44743.089    201.13653    1108.9961    2455.1564     4754.472    781.76955     732.0665     458.0708    69.582959    2041.4898   -3157.1154   -86.823126    25559.975   -19689.878    7933.2839    1.0652748    28.361867    38.867054    40.589885    89.659118    90.076349    90.059457 
   22000     44691.37    197.02442    381.42684    2404.9622    4795.9707    818.13086     685.7926    461.17895    70.688464    2035.7909   -3132.1619   -86.923603    25580.237   -19687.895    7449.5384    1.0665076    28.306304    38.951371    40.534286    89.892281    89.848976    90.193992 
   22200    44505.967    200.02415   -528.27387    2441.5782    4695.8962     794.5255    709.42299    439.77969    70.088398    2013.8166   -3183.2779   -87.285709    25554.158   -19688.801    6794.5857    1.0709504    28.297556    38.995128    40.334422    90.273956    89.626262    90.202389 
   22400    44534.959    197.78438    40.996486    2414.2386    4774.0503    808.64626    715.38244    445.26476    65.509259    2034.8027   -3153.6519   -87.228887    25581.181   -19688.282     7214.916    1.0702532    28.364946    39.040188     40.22017    90.456905    89.500813    90.315163 
   22600    44745.492    200.77673    547.75427    2450.7645    4788.5021    823.07786    748.38779    440.07203    69.963823    2081.5015   -3173.0407   -86.818464    25568.663   -19688.622    7596.7131    1.0652176    28.481757     39.06914    40.214251    90.356646    89.481938    90.282299 
   22800    44748.407    197.58158    745.83818    2411.7631    4762.3736    795.42297    719.39294    453.02515    68.498162    2036.3392   -3171.7056   -86.812809    25585.695   -19687.955    7660.8779    1.0651482    28.490298    38.992991    40.281569    90.007995    89.594037    90.148105 
   23000    44578.122    200.18821    749.27559    2443.5808    4820.8877     814.3463    738.56626    458.53705     73.37821    2084.8278   -3147.3116   -87.144427    25572.022   -19688.651    7751.5922     1.069217    28.416124    38.805197    40.427701    89.674249    89.725461    89.987942 
   23200    44813.345    202.00806   -379.15947    2465.7947    4753.1658    801.02815    724.70874    450.44195    75.879558    2052.0584   -3178.9496   -86.687009    25569.609   -19689.552    6971.1582    1.0636047    28.445147    38.729705    40.678651    89.631107    89.819751    89.921518 
   23400    44486.911    200.58742   -265.65127    2448.4537    4735.9041    775.22456    723.83306    458.11809    70.793927    2027.9696   -3167.9734   -87.323098    25565.284   -19689.377    7012.0043    1.0714092     28.41758    38.485162    40.677768    89.770793    89.941596    89.845806 
   23600    44434.723    199.36364   -194.10486    2433.5157    4819.6789    811.06357    739.79022     479.7154    76.897799     2107.467   -3175.1651   -87.425658    25575.945   -19688.568    7127.4079    1.0726675    28.436579    38.477026    40.611309    90.054962    90.044108    89.786146 
   23800    44896.091    201.38766   -723.38994    2458.2218    4815.3014    807.23392    743.41996    458.04012    68.876543    2077.5705   -3143.4145   -86.527241    25570.223   -19689.078    6799.8739    1.0616444    28.542952    38.716125    40.628275    90.349841    90.108758    89.837357 
   24000      44902.3    200.80755    -950.4255    2451.1407    4739.1819    784.24854    718.40262    443.24326    64.924611     2010.819   -3162.6299   -86.515276    25579.333    -19688.34    6567.9327    1.0614976    28.526264     38.81521    40.553952    90.383059    90.099677     89.87159 
   24200    44532.729    199.68589   -904.46512    2437.4492    4803.6801     822.5368    758.84682    437.78679    71.100796    2090.2712   -3172.3184   -87.233255    25573.859   -19688.132    6653.7116    1.0703068    28.353509    38.836344    40.442409    90.204863    90.025303    89.974626 
   24400    44462.543    205.15739    118.47199    2504.2367    4717.3197    789.22238    720.41798    421.07267    67.053663    1997.7667   -3162.3105   -87.370955    25570.889   -19689.025    7298.3785    1.0719963    28.225221    38.909827    40.485552    89.857407    89.953571     90.11887 
   24600    44927.779    198.79971   -674.29951    2426.6322     4725.189    789.10065    698.87239    428.95515     67.19631    1984.1245   -3143.7716   -86.466213    25572.168   -19687.332    6710.0029    1.0608956    28.271752    39.102074    40.641971    89.588216    89.980623    90.128394 
   24800    45002.033    200.77114   -232.45851    2450.6963    4797.4708    810.61934    736.15123     428.7212     62.74413    2038.2359   -3130.5002   -86.323543    25577.608   -19687.873    7095.6027    1.0591451    28.260455    39.083631    40.745227    89.496427    90.074971    90.151997 
   25000    44635.761    203.91647    404.89034    2489.0895    4722.4595    777.48468    714.13217    440.61388    65.349874    1997.5806   -3157.4125   -87.031896    25569.557   -19687.266    7475.1191    1.0678363    28.202864     38.89663    40.691043    89.485548    90.184977    90.141882 
   25200    44563.439    197.87952     592.9987       2415.4    4725.3247    793.10263    711.58632     436.7724    65.018177    2006.4795   -3164.6633    -87.17314    25571.613   -19688.105    7526.1217    1.0695693    28.297941    38.763111    40.626852      89.8054     90.28639     89.99187 
   25400    44726.801    197.90758    237.52891    2415.7425    4789.9153    785.71386     748.2293    440.47072    70.313059    2044.7269   -3151.2668   -86.854744    25585.177   -19688.721    7360.5966    1.0656627    28.450843     38.69237    40.631186    90.231761     90.33915    89.877363 
   25600    44725.457    197.38818    425.97242    2409.4025    4833.3421    809.56962    732.55206    457.45121    76.520149     2076.093     -3134.43   -86.857355    25578.434   -19686.755    7520.5956    1.0656947    28.575479     38.52593    40.629401    90.586232    90.315443    89.785102 
   25800    44842.704    193.79242   -28.928835    2365.5111    4763.0749    774.34304    752.80557    448.73313    65.486007    2041.3677   -3159.1585   -86.630256    25568.287   -19687.421    7109.6671    1.0629083    28.609216    38.513508    40.700524    90.530096    90.288407    89.778724 
   26000    44797.696    202.62031   -120.54579     2473.268    4742.4571    810.11744     726.9788    434.96365    64.904396    2036.9643   -3185.3484   -86.717292    25580.513   -19689.672    7136.9691    1.0639762     28.50504    38.626075    40.688133    90.365513    90.203632    89.795653 
   26200    44372.951     199.2512    7.3298364    2432.1433    4781.0864    793.86439    751.47226    457.75217    66.225327    2069.3141   -3171.5854   -87.547364     25571.58   -19688.223     7217.973    1.0741608    28.292039    38.644861    40.584945    90.090634    89.986398    89.821923 
   26400    44620.916    198.33731   -1.3073807     2420.988    4702.6574     765.1487    703.67448    436.89581    64.600067    1970.3191    -3156.016   -87.060849     25576.44   -19688.086    7122.7945    1.0681915    28.262298    38.832925    40.657395    89.783074    89.730859    89.893322 
   26600    44939.085    201.41464   -24.870695    2458.5511    4755.2048    776.93222    720.00015    450.71941    64.762848    2012.4146   -3148.0423   -86.444458    25578.373    -19687.54    7197.4559    1.0606287    28.351184    38.970641    40.675388    89.720816    89.590939    90.013346 
   26800     44774.55    199.54273    1220.2635    2435.7018    4785.5965    763.71917    746.49361    453.95878    67.737587    2031.9091   -3142.9147    -86.76212     25584.89   -19688.288    8018.1192    1.0645263    28.377149    38.964138    40.496409     89.78623    89.538997    90.174084 
   27000    44649.871    200.53882    714.10503    2447.8605     4737.444    789.77734    707.98205    431.11924    67.974078    1996.8527   -3166.9291   -87.004392    25596.762   -19689.242    7650.3101    1.0674988    28.367201    38.936086    40.426769    90.036944     89.56184    90.270107 
   27200    44557.425    197.30586    25.610342    2408.3977    4747.5089    787.15623     746.9665    432.23808    68.879109    2035.2399   -3150.8073   -87.184906    25550.823   -19687.747    7172.5488    1.0697136    28.365404    38.836126    40.449634     90.27981    89.676521    90.333291 
   27400    44848.455    199.62397   -910.63266    2436.6935    4804.0441    793.97019    742.54219    452.28335    65.169223     2053.965     -3139.14   -86.619147    25577.003   -19687.783    6645.1212    1.0627721    28.455051    38.811751    40.611212     90.46455    89.833358    90.275514 
   27600    45164.519    199.14071   -723.18655    2430.7946     4801.843     799.4901    717.54833    452.49093    69.086128    2038.6155   -3144.2402   -86.012981    25595.829   -19688.361    6756.2904    1.0553347    28.538809    38.763314     40.82715    90.308486    90.111366    90.140301 
   27800    44782.224    202.23129    997.34352    2468.5195     4820.954    801.16644    729.35271    447.69588    70.573805    2048.7888   -3114.5993   -86.747252    25574.881   -19688.117    7940.8413    1.0643438    28.456046    38.524272    40.851493    89.906118    90.401541    89.982055 
   28000    44634.256    202.30406    563.99223    2469.4077    4741.6258    774.88162     717.7499    447.22655    63.301133    2003.1592   -3160.3305   -87.034829    25586.587    -19687.79    7578.1613    1.0678723    28.406579    38.506545    40.808701    89.651113    90.647687    89.823455 
   28200    44700.822    199.63298   -959.38197    2436.8035    4747.0417    779.18479    734.06025    436.41135    68.076841    2017.7332   -3156.2433   -86.905223    25574.058   -19688.506     6558.409    1.0662821    28.461482    38.559271    40.736151    89.750043    90.772614    89.673847 
   28400    44854.975    202.22219   -1004.6272    2468.4085    4820.3899     799.8753    720.91785    443.75791    72.311537    2036.8626    -3112.201   -86.606555    25583.949    -19688.22    6631.6077    1.0626176    28.516301    38.763235    40.583148    89.999016    90.753034    89.595805 
   28600     44980.29    197.50993   -782.70389    2410.8886    4764.9632    770.74314    725.77828    440.66752      70.3553    2007.5442   -3143.2493   -86.365271    25588.334   -19687.666    6662.4048    1.0596571    28.592674    38.946088    40.396574    90.120941    90.659827    89.588272 
   28800    44846.876    199.64374    365.96578    2436.9348    4782.5985    797.59633    717.84118    442.73608    71.154049    2029.3276   -3122.5671   -86.622197    25562.831   -19686.993    7458.8916    1.0628095    28.515508    39.042975    40.284379    90.149572    90.474254    89.570692 
   29000    44865.263    202.92368    465.91672    2476.9711    4784.2262    771.61155    738.63478    456.06488    66.574646    2032.8859    -3158.847   -86.586697     25598.52   -19688.333    7566.0531    1.0623739    28.406595    39.184975    40.308161    90.114037     90.21894      89.4852 
   29200    44615.045     197.5649    204.97461    2411.5596    4734.6585    781.27837    702.12793    449.53881     71.03008    2003.9752   -3147.3286   -87.072306    25565.299   -19687.288    7279.5879    1.0683321    28.282029    39.079575    40.368164    90.109258    89.949732    89.491757 
   29400     44727.91     198.6382   -425.14687    2424.6607    4784.8825    791.88424    731.65257    456.05303    73.174287    2052.7641   -3153.6343   -86.852591    25572.829   -19687.077    6932.2154    1.0656363    28.245085    39.048178    40.556075    90.061452    89.687906    89.535774 
   29600    44976.699    199.36064    107.71211    2433.4791     4811.407    778.89234    735.21823    451.11172    70.542054    2035.7643   -3132.9039   -86.372165    25595.192   -19686.646    7315.5387    1.0597417    28.319645    38.985437    40.740065    90.003836    89.525065    89.622492 
   29800    44895.219    195.75411    805.18812    2389.4563    4756.1084    779.15032    727.99904    446.30077    73.821665    2027.2718   -3145.5106   -86.528922    25563.029   -19688.682    7672.7623     1.061665    28.341022    38.787847    40.842701     90.02017    89.422555    89.771229 
   30000    44606.619    201.82351     1242.237    2463.5419    4714.6559    753.72735    714.66575    440.11232    71.229242    1979.7347   -3140.5964   -87.088755    25563.119   -19687.601    7986.3248    1.0685339    28.315506    38.598773    40.815787    90.005754    89.366427    89.954477 
   30200    44796.013    198.56659    937.20625    2423.7867    4799.7306     781.4122    727.33013     453.8241    64.589797    2027.1562   -3117.7981   -86.720551    25578.538   -19688.165    7835.7978    1.0640162    28.392202     38.60351    40.873177    89.877249     89.43044     90.19111 
   30400     45102.21    196.13669   -44.848031    2394.1262    4798.3687    769.85325    758.55986    435.45704     70.98912    2034.8593    -3114.869   -86.131808    25564.306   -19685.927    7162.9952    1.0567927    28.572668    38.629653    40.865421    89.813959    89.582137    90.489063 
   30600    45012.506    201.32246    535.43539    2457.4259    4793.3328    789.26933    700.33532    457.13283    69.659145    2016.3966   -3132.8417   -86.303457    25597.248    -19687.47    7602.2513    1.0588987    28.632576    38.620321    40.710453    89.715233    89.844425     90.79682 
   30800    44622.377    200.46446    167.75319    2446.9528    4782.9508    799.90263    714.59084    449.78383    69.969326    2034.2466   -3140.2529      -87.058    25576.559   -19687.602    7339.0726    1.0681565    28.511585    38.646048    40.503685     89.74698    90.173159    90.969454 
   31000    44713.009    200.85405   -862.91363    2451.7083    4745.1693    790.21597     716.8532    447.37573    68.478745    2022.9236    -3163.844   -86.881536    25573.604   -19687.514    6634.1773    1.0659914    28.494911    38.794309    40.453686    89.720536     90.39629    90.817303 
   31200    44913.187    201.63298   -1097.2057    2461.2162    4749.6551    749.08886     731.8136    452.18656    71.756702    2004.8457   -3155.9429   -86.494305    25588.756   -19688.003    6492.1876    1.0612403    28.472234    38.898779    40.555953     89.87473    90.549024    90.512078 
   31400    44961.737    202.51132   -527.37899    2471.9377    4838.1098    815.12465    721.61451    453.62923    73.112938    2063.4813    -3130.947   -86.400908    25594.438   -19688.863    6964.2341    1.0600944    28.426041    38.917858    40.644847    90.149887    90.608626    90.160178 
   31600    45075.088    200.21285   -400.06907    2443.8816    4772.5377     765.9892    693.01546    465.11047    77.539576    2001.6547   -3130.4084   -86.183634    25588.249   -19686.958    6953.4243    1.0574285    28.379314    38.962183    40.768048    90.289851    90.555451    89.801115 
   31800    44979.079    201.61021    -405.0939    2460.9383    4804.1001    787.34122    716.73875    462.06598    71.462301    2037.6082   -3125.6259   -86.367594    25580.153   -19688.036    6999.3075    1.0596856    28.296052    38.905342    40.860455    90.330933    90.351527    89.566602 
   32000    44920.195      197.228    78.165256    2407.4472    4767.7176    781.06829    736.38133    442.14807    66.775604    2026.3733   -3134.7324   -86.480811    25563.804   -19687.728     7226.372    1.0610747    28.314748    38.851511    40.836798    90.161756    90.114996    89.348485 
   32200    44831.676    202.16168    96.094859    2467.6698    4713.3108    770.36965    678.85396    443.23064    67.296114    1959.7504   -3149.8766   -86.651565    25590.239   -19686.801    7243.8097    1.0631698     28.39862    38.763623    40.728956    89.970051     89.86154    89.236181 
   32400    44922.518    201.64033    587.87683     2461.306    4791.1392    787.77179    722.19144     444.0375    73.914979    2027.9157   -3124.0511   -86.476339    25575.341   -19688.066     7637.592    1.0610199    28.510488    38.728481      40.6884    89.806108    89.652683    89.312336 
   32600    45148.144    196.68649    1016.0172    2400.8373    4821.4928     765.7688    717.05042    461.92421    74.088594     2018.832   -3118.5394   -86.044176    25608.505   -19687.305    7891.3159    1.0557175    28.627809    38.762049    40.689758    89.640635    89.490718    89.531217 
   32800    44787.629    198.02206    1344.8415    2417.1399    4721.2043    735.35611    699.52606    459.63531    74.076773    1968.5942   -3141.1485   -86.736784    25581.227   -19687.468    8016.7699    1.0642154    28.631455     38.59399    40.534036    89.773369    89.469734    89.789304 
   33000    44726.126     200.1295    349.88123    2442.8641    4776.7787    788.91205    700.63556    452.24001    73.890574    2015.6782   -3124.6962   -86.856056    25572.913   -19687.116     7447.865    1.0656788    28.600654    38.608416    40.505666    90.004919    89.567218    89.968029 
   33200    45239.357    198.55096   -1165.5327    2423.5958    4797.2935    740.63606    718.79241    458.03738    73.287886    1990.7537   -3107.1143   -85.870691    25601.526   -19687.871    6451.9063    1.0535889     28.62569    38.885424    40.642143    90.073534    89.807951    90.050971 
   33400    45197.835    203.02448   -502.47897    2478.2015    4822.6836    771.59718    723.89644    470.38836    74.727357    2040.6093   -3114.3292    -85.94958     25582.46   -19686.057     6969.669    1.0545568    28.513709    38.942342    40.704647     90.06192    90.068585    90.154173 
   33600    44987.938    204.33177   -20.207281    2494.1588    4784.7204    761.29501    722.03272    447.97671     69.89015    2001.1946   -3129.4761   -86.350588    25599.791   -19686.789    7265.6212     1.059477    28.381796    38.941295    40.705896    89.966911    90.331924    90.250282 
   33800    44870.633    200.87305   -562.76572    2451.9403    4757.4944    747.90034    710.73668    453.34291    77.311576    1989.2915    -3137.873   -86.576334    25594.484   -19688.408    6841.1652    1.0622467    28.343284    38.884402    40.715745    89.846457    90.512556    90.322943 
   34000    44881.476    200.05739   -1106.0261     2441.984    4798.7912    764.81743    734.80155    454.72749    67.357315    2021.7038   -3125.9366   -86.555418    25590.588   -19687.564    6516.8255    1.0619901    28.388964    38.852756    40.693884    89.826356    90.598865    90.342446 
   34200     45065.38    203.42966   -1314.8628    2483.1473    4792.3545    750.61004    741.30407     448.2352    77.945923    2018.0952   -3127.0417     -86.2022    25586.873   -19685.572    6411.3314    1.0576563    28.475925    38.897088     40.68947    89.818659    90.604797    90.339927 
   34400    44910.592    199.52692   -89.989545    2435.5089    4749.8335    738.01618     711.2564    453.18012    69.953048    1972.4058   -3116.0981   -86.499304    25579.843   -19686.317    7126.4015    1.0613016    28.611561    38.799386    40.457647     89.93508     90.38754    90.349271 
   34600    44967.156    201.00686    922.15572    2453.5736    4783.2808    756.34243    723.38443    445.88279    77.413666    2003.0233   -3129.3505   -86.390496    25595.915   -19686.307    7841.6039    1.0599666    28.734744    38.827329    40.305278    90.110208    89.901374    90.387304 
   34800    45069.879    200.94177    1445.3697    2452.7791    4813.3545    767.82384    719.76901    447.66191    74.414965    2009.6697    -3110.342   -86.193594    25602.897    -19688.87    8216.1722    1.0575507    28.805288    38.828629    40.299542    90.316414    89.403781     90.34802 
   35000    45092.991    198.32907    630.87265    2420.8873    4790.7806    747.79535    711.91569    451.40396    75.188698    1986.3037   -3116.8995   -86.149417    25606.754   -19685.378    7626.5518    1.0570087    28.781227    38.815335    40.372058    90.312268    88.954411    90.299534 
   35200    44948.348    200.00652   -630.68036     2441.363    4805.2427    781.71546    728.97509    437.28778    69.606747    2017.5851   -3117.7174   -86.426645     25593.38   -19688.005    6833.1787    1.0604101    28.636938    38.730865     40.53594    90.130467    88.740053    90.253215 
   35400    44983.177    198.80389   -509.49553    2426.6832     4816.712    775.35726    715.95147    463.89333     77.30517    2032.5072   -3099.0277   -86.359726    25570.828   -19687.595    6909.1491    1.0595891    28.536347    38.718345    40.722613    89.863504    88.790243    90.196116 
   35600    45143.236    193.69306   -398.66909    2364.2983    4791.3893    752.99541    717.65026    466.92439      75.5004    2013.0705   -3114.3021   -86.053532    25579.519   -19686.898    6893.2168    1.0558322    28.477787    38.784421    40.879737    89.684669     88.96793    90.164828 
   35800    44970.274    196.89584    12.897865    2403.3928    4840.7192    780.48025    718.82107    470.27382    75.056858     2044.632    -3116.329   -86.384506    25599.425   -19687.009     7252.571    1.0598931    28.447004    38.764135     40.78432    89.780742    89.316731    90.059688 
   36000    44984.934    199.43883   -621.03928    2434.4335    4788.3345    764.18625    711.83957    474.31726    76.951051    2027.2941   -3141.5964   -86.356355    25589.887    -19687.25    6815.3296    1.0595477    28.453183    38.839968    40.706303    90.027518    89.747945    89.973988 
   36200    44909.754     200.7484   -264.11924    2450.4188    4727.4221     749.4584    686.14152    455.72588    72.177859    1963.5037    -3141.527   -86.500916    25592.153   -19686.707    7004.8527    1.0613214    28.419109     38.86919    40.656197    90.137106    90.107425    89.984452 
   36400     44937.86    203.60955    712.63657    2485.3431    4804.9757    779.19925    732.88937    450.27701    71.866136    2034.2318   -3125.8436   -86.446815    25584.231   -19687.644    7757.3613    1.0606576    28.459781    38.851163    40.642934    90.068826    90.334653    89.910814 
   36600    45091.956    200.91888    948.97533    2452.4997     4764.693    756.27677    718.76449    444.37107    72.361991    1991.7743   -3127.4228   -86.151394    25587.444   -19687.102    7841.2578     1.057033    28.545353    38.898726    40.610785    89.910255    90.422407    89.893074 
   36800    44959.945    199.02019   -222.07415    2429.3235    4783.4822    765.85656    714.82871    453.42241    68.748215    2002.8559   -3141.8287   -86.404351    25608.655     -19686.2    7067.1929    1.0601366    28.535545    38.852427    40.554146    89.790329    90.392415    89.897119 
   37000    44825.768    200.09441   -279.50048    2442.4358     4791.909    776.01099    726.64781    454.86767    71.965049    2029.4915    -3126.185   -86.662986    25576.834   -19688.232    7051.6248    1.0633099    28.429484    38.849835    40.586244    89.758127     90.28606    89.990323 
   37200    44901.301    200.12309   -236.94987     2442.786    4750.5346    746.15162    708.34889    455.45557     71.31573    1981.2718   -3141.4007   -86.517202    25598.754   -19688.091    7038.1564    1.0615212    28.328144    38.917401    40.728583     89.88644    90.125367    90.081237 
   37400    44709.023    195.72724    310.66333    2389.1283    4751.7445    740.61378     718.1978    469.31817    71.899205     2000.029    -3125.037   -86.889282    25565.514   -19688.762    7343.4363    1.0660865    28.228236    38.820246    40.800144    90.291298    89.937968    90.201097 
   37600    44835.093    201.30479    -213.5355    2457.2102    4774.4506    761.84506    706.60198    470.64798    69.002603    2008.0976   -3143.3721   -86.644961    25597.584   -19687.859    7092.0355    1.0630888    28.279147    38.734643    40.933456    90.505458    89.763739    90.293161 
   37800    45159.558    199.79407   -378.03874    2438.7698    4795.9699    749.92316    722.14673    449.13061    74.591643    1995.7921   -3089.6155    -86.02243    25576.334   -19686.541    6985.7612    1.0554506    28.481004    38.680889    40.993949    90.327302    89.707184    90.371492 
   38000    45207.009    202.31718    -777.6704    2469.5679    4839.2189    774.04234    724.14673     471.4058    75.872631    2045.4675   -3115.9537   -85.932137    25594.769   -19685.064    6796.0704    1.0543428    28.618642    38.569197    40.957511    89.961374    89.690545    90.407232 
   38200    44920.568    200.82239    448.85597    2451.3219    4792.6979    752.78848    728.58577    458.55715    76.168177    2016.0996   -3120.9381   -86.480093    25585.019   -19687.482    7538.0745    1.0610659    28.624118    38.445713    40.821413    89.591191    89.672951    90.263869 
   38400    44842.676    199.12626    543.38469    2430.6181    4773.4788    771.27497    727.54618    439.99575    70.691251    2009.5082   -3135.7279   -86.630309    25587.527   -19687.829     7559.462     1.062909    28.631474    38.511938    40.670176    89.509671    89.688164    90.136131 
   38600    45152.054    201.23655   -536.26665    2456.3772    4838.8087    783.50896    713.59111    492.84536    76.839462    2066.7849   -3128.4746   -86.036727    25588.902   -19688.404    6942.0563    1.0556261     28.67822     38.76689    40.614399    89.580377    89.756325    90.039025 
   38800    45299.978    206.01645   -1180.5861    2514.7228    4755.4814    766.11172    690.41064    447.82265    69.969647    1974.3147   -3120.6744   -85.755779    25588.505   -19686.664    6490.2456     1.052179    28.621329    39.051826    40.529535     89.78688    89.846629    89.943142 
   39000    44867.607    199.88141    846.12634    2439.8359    4770.4819    756.08218    725.39096    456.40339    73.303238    2011.1798   -3120.7951   -86.582173     25567.95   -19687.853    7763.9789    1.0623184    28.427181    39.087336    40.379956    90.159083    89.942857    89.883111 
   39200    44736.976    200.30794     1571.157    2445.0422    4732.6166     743.3158    686.06978    446.96114    74.636077    1950.9828   -3140.6646    -86.83499    25610.777   -19688.478    8202.7491    1.0654203    28.312042    39.139518    40.372791    90.304836    90.032925    89.801726 
   39400    44985.918    201.27879    642.46821    2456.8929    4830.6332    776.93054    713.83915    468.91619    74.425738    2034.1116   -3127.5978   -86.354465    25610.147   -19686.027    7709.0325    1.0595245    28.367307    39.094984    40.564781    90.271513    90.096697    89.693701 
   39600    45240.956    197.08235    347.46215    2405.6694    4807.2045    762.39946    726.96944    441.85352    71.397752    2002.6202   -3101.3403   -85.867657    25591.934   -19686.009     7442.127    1.0535517    28.496755    38.948737     40.76184    90.195842    90.163447    89.686014 
   39800    45207.148    196.35993    272.46708    2396.8513    4800.2762     762.4576    708.61216     441.0357    71.865259    1983.9707   -3091.7873   -85.931873    25595.457   -19687.365     7376.765    1.0543396    28.553031    38.755836    40.853179    90.133226    90.196545    89.743125 
   40000    45129.508    198.89111   -232.82834    2427.7479    4836.6747     784.8795    720.77094    461.47538    72.222332    2039.3482   -3102.0329   -86.079709    25586.277   -19686.917    7111.1825    1.0561534    28.566986    38.669325     40.85393    89.964457    90.172839    89.817988 
   40200    45126.106    199.08432   -748.60043    2430.1062    4799.7747    764.68657    705.88633    457.83738    75.018652    2003.4289   -3123.9954   -86.086198     25608.31   -19687.969    6737.2135     1.056233    28.604981    38.621253    40.847203    89.818598    90.052711     89.95684 
   40400    44966.848     201.7669   -518.37406     2462.851    4724.5555    768.51092    677.62319    432.35211     70.82701    1949.3132   -3112.8828   -86.391088    25575.058   -19686.933    6847.4592    1.0599739    28.602872    38.512989    40.820549    89.816928    89.925099    90.100358 
   40600    45156.025     201.2176   -324.80419     2456.146    4827.4696    762.64876    724.98834    464.83867     67.57293    2020.0487   -3085.1401   -86.029161    25579.832   -19687.271    7069.7143    1.0555332    28.654619    38.533028     40.89752    89.909545    89.767119    90.272442 
   40800    45636.125    200.94811   -1145.1696    2452.8565    4801.4667    771.67356    709.13153    443.54922    70.921073    1995.2754    -3107.675   -85.124119      25600.9   -19687.034    6492.1486    1.0444288    28.720123    38.708406    41.053311    90.049657    89.507555    90.473729 
   41000    45221.535    204.06683    757.43135    2490.9249    4781.8856    765.54315    677.69574    439.08464    66.612243    1948.9358    -3060.797   -85.904535    25581.473   -19687.726    7772.3438    1.0540041    28.582216    38.690386    40.899549     90.25344    89.244055    90.678285 
   41200    45039.069    196.77378    524.16498    2401.9028    4776.9315    758.38792    722.86911    447.26456    63.119971    1991.6416   -3132.1505   -86.252558    25605.199   -19687.759    7523.1313    1.0582742    28.410932    38.862905    40.800059    90.235479    89.158071    90.796112 
   41400    44996.166    198.15247   -97.843334    2418.7317    4741.2685    763.09787    693.68453    439.05399    69.392814    1965.2292   -3116.9009   -86.334798    25579.737   -19686.797    7095.7931    1.0592832    28.390235    39.088298    40.553743    90.149551    89.286252    90.739541 
   41600    45171.288    202.72572   -463.59292    2474.5547    4775.1312    755.11112    709.01134    458.11972    65.561352    1987.8035   -3119.1265   -86.000091    25594.658   -19688.204    6944.2816    1.0551766    28.422113    39.304032    40.439205    89.954839    89.593318    90.583184 
   41800     45068.97    200.04455    704.05576    2441.8273     4764.787    736.21014    730.78569    431.66073    75.858979    1974.5155   -3103.7333   -86.195334    25580.536   -19686.531    7669.3794    1.0575721    28.417881    39.293083    40.363577    89.644537    89.929876    90.409887 
   42000    45042.884    197.73988    808.00292    2413.6955     4737.347    756.41902     680.6978    446.71704    72.755024    1956.5889   -3130.1108   -86.245253    25598.085   -19687.216    7681.8231    1.0581846    28.484237    39.199496    40.342069    89.588875    90.228382    90.192928 
   42200    44979.173    198.99718    86.356346    2429.0425    4801.2082    753.68608    728.57548    464.75012    72.022113    2019.0338   -3122.4697   -86.367415     25592.57   -19687.926    7286.8984    1.0596834    28.516265    39.007708    40.437098     89.75508    90.338376    89.973831 
   42400    44968.037    198.43374   -184.64899    2422.1651    4794.0819    769.45972    728.40846    448.66027    76.633249    2023.1617   -3107.4334   -86.388803    25565.359   -19687.006    7095.1518    1.0599458    28.571645    38.768497    40.597568    89.939772    90.294263    89.744658 
   42600    45145.824    192.87573   -1122.5293    2354.3216     4781.334    755.53582    709.31955    462.70949    68.198493    1995.7634   -3120.9919   -86.048598    25593.143    -19686.58    6396.5761    1.0557717    28.617998     38.72091     40.74215    90.097833    90.192976    89.650399 
   42800    44999.195    201.48399   -780.62544    2459.3977    4779.9028    787.19491    701.20801    435.02472    75.766468    1999.1941   -3124.9383   -86.328987    25591.951   -19686.304    6727.0017    1.0592119    28.593296    38.638256    40.732123    90.153725    90.065524    89.570538 
   43000    44919.651    196.90738    511.93526    2403.5336    4795.4718     766.8042    701.39915    452.65374    65.545449    1986.4025   -3096.6256   -86.481858    25593.029   -19687.334    7534.3778    1.0610876    28.545285    38.628944    40.738237    90.242483    89.971545    89.628625 
   43200    45107.158    200.58136   -642.71766    2448.3798    4750.0374    751.04714    698.90722    445.69524    75.148049    1970.7976   -3112.1247    -86.12236    25578.404   -19687.039    6775.6108    1.0566767     28.49751    38.741383    40.857261    90.102136    89.910628    89.736492 
   43400     45170.33    203.18973    125.45118    2480.2186    4781.2398    770.40991    697.41189    454.47118     71.12032    1993.4133   -3111.6629   -86.001915    25586.691   -19687.201     7344.101    1.0551989    28.396606    38.874385    40.918963    89.922926     89.91067     89.92124 
   43600    45031.445    197.17676   -61.552238    2406.8218    4781.9778    771.61848    709.52575    437.43201    69.079357    1987.6556   -3115.6059   -86.267161     25596.83   -19686.902    7148.3759    1.0584534    28.220028    39.000548    40.915866     89.78613    89.921856    90.093572 
   43800    44794.721    196.73504    546.94465      2401.43    4740.9626    772.89819    699.51158    423.45749    69.038632    1964.9059   -3123.8969   -86.723052    25587.054     -19687.1    7499.7033    1.0640469    28.092239    39.049298    40.835639    89.630715    89.963594     90.21274 
   44000    44973.251    207.08504   -395.58128    2527.7664    4717.4141     753.0612    702.55104    422.27878     71.03965    1948.9307   -3130.4603   -86.378787    25585.981   -19687.038    6985.7232     1.059823    28.191904    39.124604    40.775429    89.700923    89.985336    90.437911 
   44200    45334.219    197.46126   -596.11057    2410.2945    4837.9218    791.53744    715.34554    443.34869    65.454372     2015.686   -3102.3415   -85.691008    25610.516   -19685.938     6854.096    1.0513843    28.475441    39.112386    40.706471     89.95612    90.036032    90.575069 
   44400    45378.104    206.00794    120.16882    2514.6189    4826.6019    778.34535    724.72909    440.46943    75.440034    2018.9839   -3085.1671   -85.608135    25579.215    -19686.43    7420.7477    1.0503675    28.702977    38.949054    40.593361    90.260673    90.121876     90.63891 
   44600    45201.827    200.63925    56.581632    2449.0863    4802.2648    777.08321    696.79208    449.04539    69.423388    1992.3441   -3111.2854   -85.941989    25606.702   -19685.496     7288.651    1.0544637    28.782927    38.801712    40.476784    90.372668    90.178493    90.608117 
   44800    44966.498    202.54231    589.32849    2472.3159    4753.7561    768.93173    676.64658    434.24831    70.754131    1950.5807   -3120.9054   -86.391759    25610.358   -19686.277    7612.5479    1.0599821    28.775038    38.662367    40.421372    90.300914    90.228133    90.504131 
   45000    44982.878    200.04155   -81.986244    2441.7906    4687.5717    725.64722    712.97781    431.26886    71.698919    1941.5928   -3133.3771     -86.3603    25567.107   -19687.751    7075.5769    1.0595961    28.722895    38.635487    40.536392     90.08824    90.206466    90.370894 
   45200     45023.17    200.70186    146.65462    2449.8506    4792.6919    760.88081    706.16604    444.75624    67.951095    1979.7542   -3108.4761   -86.283017      25608.4   -19686.987    7338.8384    1.0586479    28.656562    38.648201    40.652676    89.762011    90.130649    90.154455 
   45400    45217.966    200.76135   -245.52098    2450.5767    4803.4266    757.14399     732.1723    451.91825    74.372465     2015.607   -3109.7799   -85.911315    25586.139    -19688.54    7092.0926    1.0540873    28.564578    38.826447    40.772061    89.696725    90.004153    89.875734 
   45600    45228.397    206.40947   -642.24468    2519.5201    4795.0121    785.32612    705.39649    456.05543    69.461849    2016.2399    -3130.478     -85.8915    25597.188   -19687.937    6890.9013    1.0538442    28.438682    38.947271    40.835529    89.701598    89.875972    89.684206 
   45800    45026.847    197.64821    212.46985    2412.5765    4785.0772    774.19262    706.23019    451.87143    70.570916    2002.8652   -3110.3571   -86.275971    25579.435   -19686.866    7337.1763    1.0585615    28.337652    38.985726    40.758904    89.783476    89.773448      89.5399 
   46000    45036.121    198.42443   -269.86303    2422.0513    4801.9968     781.5734    713.51644    443.03893    72.297805    2010.4266   -3113.1931   -86.258203    25591.207   -19686.444    7046.8005    1.0583434    28.369451    39.024988     40.68158    90.044654     89.65703    89.415364 
   46200    45093.554    206.52649   -103.03385    2520.9485     4772.882     757.3743    696.95865    457.47303     73.44497    1985.2509   -3105.9032   -86.148342    25581.284    -19687.75     7226.071    1.0569955    28.524338    39.024235    40.514642    90.353785    89.597615    89.345913 
   46400    45307.259    201.03741   -10.684941    2453.9465    4786.3814    745.08872     710.1755    451.81337    72.464773    1979.5424   -3108.9369   -85.741998    25604.079   -19688.303    7233.2677    1.0520099    28.682357    39.043832    40.463695    90.698923    89.628457    89.407479 
   46600    45214.573    199.16285    374.54082    2431.0648    4810.4804    755.24863    701.89898    460.26143    68.210169    1985.6192   -3108.0198   -85.917762    25618.245   -19685.364    7488.5205    1.0541664    28.679714    38.926363    40.504591    90.631139    89.716637    89.563169 
   46800    45035.269    200.93172   -45.625427    2452.6564    4850.3304    791.18392    695.74914    475.39158    70.549753    2032.8744   -3112.6686   -86.259835    25614.975   -19684.851    7273.0203    1.0583635    28.603006     38.74759    40.635213    90.193753     89.87983    89.797796 
   47000    45098.647    199.65547   -11.103605    2437.0779     4788.631    755.01583     693.0632    472.52775    72.815123    1993.4219   -3107.7819   -86.138612    25590.125   -19687.134    7218.4059    1.0568761    28.593258    38.627467    40.832409    89.877569    90.071085    90.022662 
   47200    45256.557    200.62342    171.63599    2448.8931    4786.4031    751.00019     711.8838    450.83531    67.873685     1981.593   -3109.4688   -85.838057     25600.22   -19685.941    7348.5795    1.0531885    28.566261    38.660928    40.979217    89.845818    90.211567    90.223637 
   47400    45194.247     202.7416    243.48538    2474.7485    4844.3458    759.77862    727.96632    466.30347    67.129057    2021.1775   -3088.3801   -85.956403    25598.428    -19686.88    7479.5784    1.0546405    28.525441    38.633983    41.010285    89.968869    90.241027    90.338291 
   47600    45166.069    201.66089   -359.09769     2461.557    4773.2342    766.68915    711.77892    445.51141    69.167866    1993.1473   -3132.0294   -86.010028    25600.181   -19688.065    6998.2533    1.0552985     28.56016    38.632009    40.936625    89.998388    90.204524    90.272006 
   47800    45117.638    198.43081    335.98763    2422.1293    4803.2077    745.72491    700.63772    464.40031    74.654838    1985.4178    -3098.615   -86.102355    25600.445    -19684.04     7446.415    1.0564313    28.598246    38.719597     40.74554    89.956355    90.121841    90.207346 
   48000    45134.664    201.64443    561.50426     2461.356    4858.4933    775.86046     724.8776    465.30142    72.090319    2038.1298   -3089.6164   -86.069875    25597.012   -19687.033    7689.4554    1.0560328    28.643432    38.852627    40.557012    89.905812    89.941547    90.074864 
   48200    45123.113     197.8929   -163.36348    2415.5633    4783.0381    745.09287    718.57708    443.40115    66.605802    1973.6769   -3130.0497   -86.091907    25625.707   -19686.297    7091.0961    1.0563031    28.645646    38.999021    40.391965    89.864657    89.707817    89.854598 
   48400     44903.58    201.71571   -811.98525    2462.2261    4780.8559    761.05375    716.60908    461.85465    68.750891    2008.2684   -3106.0301    -86.51281    25565.949   -19687.332     6711.335    1.0614673    28.549729    39.032057    40.298003    89.899909    89.538744    89.586932 
   48600    45036.492    197.58117   -1638.3215    2411.7582    4793.9152    790.60685    695.49645    442.35141    68.474419    1996.9291   -3108.1741   -86.257493     25593.94    -19688.78    6129.6057    1.0583347    28.471254    39.126073    40.434468    90.148004    89.445807    89.240819 
   48800    45003.723    194.85513   -737.09882     2378.483    4784.4222    762.08616    733.98637    453.13305    66.636969    2015.8425   -3111.3348   -86.320301    25567.966   -19688.052    6679.1228    1.0591054    28.424725    39.042839    40.561748    90.500959    89.481726    88.964913 
   49000    45064.513    201.20762    781.42297    2456.0241    4812.8928    776.40918     728.1101    453.29631    71.474762    2029.2903   -3113.4506   -86.203859    25583.613    -19686.56    7782.4834    1.0576767    28.366603    38.979077    40.767947    90.545802    89.613632    88.815087 
[...]
 1988600    46541.473     204.3318    524.46351    2494.1592    4916.4461    723.57261    666.31973    444.70426    69.537884    1904.1345   -2969.8594   -83.468241    25661.476   -19679.305    7766.5899    1.0241121    29.040375    37.108695    43.191225    89.834802    89.814117    90.664023 
 1988800    46538.409    199.40475    548.62894    2434.0176    5033.0936    744.67842    706.65449    468.36411    77.533662    1997.2307   -2942.1831   -83.473737    25656.963   -19678.917    7839.4739    1.0241795    29.128505    37.122057    43.040784    89.952044    89.941119    90.528687 
 1989000    46574.381    200.70446   -571.22419    2449.8824    5004.3336    759.80809    702.00294     450.2789    70.241644    1982.3316   -2956.9285   -83.409264    25656.359   -19677.429    7066.2179    1.0233885    29.276155    37.152474    42.820738    90.132731    90.092145    90.327595 
 1989200    46537.534    200.02326   -822.65425    2441.5673    4936.7221    735.44953    674.11861    437.69883    81.298669    1928.5656   -2965.8802   -83.475306    25653.069   -19679.032    6819.9522    1.0241988    29.365345    37.189595    42.614025    90.151945    90.166807    90.189297 
 1989400    46425.547    200.42393    7.0717251    2446.4581    5002.4039    757.30985     683.3775    463.47006    69.392266    1973.5497   -2953.0381   -83.676663    25659.767   -19677.875      7453.65    1.0266693    29.381037    37.224418    42.448841    90.099038     90.21639    89.962438 
 1989600    46628.136    200.65418    229.99139    2449.2686    4980.7389    744.90556    688.93385    442.65626    75.880361     1952.376   -2965.7998   -83.313108     25669.93   -19675.768    7586.4071    1.0222087    29.332567    37.374312    42.533984    90.207124    90.271024    89.765944 
 1989800    46566.182    201.03079    431.72501    2453.8656     5005.576    777.10763    674.28309    455.56567    71.921395    1978.8778   -2965.3883    -83.42395    25671.341   -19679.254    7752.6347    1.0235686    29.161054    37.534257    42.546834    90.267172    90.311124    89.498724 
 1990000     46194.78    200.39772    251.02363    2446.1382    4968.2137    735.77083    699.78376    458.95844    71.839552    1966.3526   -2978.7437   -84.094673    25660.992   -19680.387    7583.4674    1.0317981    28.886768    37.559422    42.581549    90.175138    90.355304    89.261105 
 1990200     46301.01    198.78157   -586.31334    2426.4108    4974.7535    760.03672    685.50325    457.79373    71.517889    1974.8516   -2970.1542    -83.90173    25650.101   -19680.045    7005.2546    1.0294308    28.768398    37.652702    42.749775    90.100221    90.378934    89.174296 
 1990400    46659.875    203.25134   -333.97189    2480.9707    4992.3388    749.68486    691.67158    457.27841    64.910904    1963.5457   -2945.5601   -83.256437    25653.529   -19679.176    7246.0461    1.0215133    28.784477    37.722404    42.977306    90.086593    90.412416    89.206503 
 1990600    46849.715    201.36871   -68.619434    2457.9904    5030.5812    761.67892    710.39992    461.96732    69.641172    2003.6873   -2938.9375   -82.919072    25641.803   -19675.972    7441.6871     1.017374    28.864043    37.619327    43.149917    90.124929    90.376615    89.316988 
 1990800     46545.36    200.95522    897.31218    2452.9432     4979.949    717.93671    703.35599    459.11588    70.875808    1951.2844   -2967.7061    -83.46127    25673.011    -19676.64    8042.0023    1.0240265    28.973605    37.315299     43.05468    90.284705    90.318964    89.430492 
 1991000    46281.884    201.20344     925.1247    2455.9731    4979.1491    754.01353     676.2618    464.27741     73.58181    1968.1345   -2979.8666   -83.936404    25669.149   -19678.268    8059.5572    1.0298562    29.054227    37.047434    43.000499    90.406351    90.226099    89.512404 
 1991200    46384.949    196.64353    168.58453     2400.313    4937.1854    720.61912    690.43446    447.04026    67.849367    1925.9432   -2982.3398   -83.749902    25670.671   -19677.089     7451.542    1.0275679    29.157252    36.970591    43.032038    90.448236    90.069345    89.747504 
 1991400    46522.044    196.50601   -253.17607    2398.6344    5016.4452    749.39654    717.36247    455.79633    74.023678     1996.579     -2948.54     -83.5031    25647.594   -19679.188    7243.3057    1.0245398    29.244289    37.027389    42.964401    90.432247    89.846094    90.057163 
 1991600    46710.642    199.67963   -405.68408    2437.3728    5027.1615    757.48174    684.49718    458.60595    73.743232    1974.3281   -2934.9942   -83.165949    25665.138    -19677.31    7188.1715    1.0204031    29.258529    37.197193    42.921065    90.271671    89.652156    90.260181 
 1991800    46749.854    203.10598   -228.50619    2479.1964    5019.5746    751.37187    702.71026    452.34469    72.582378    1979.0092   -2962.9879   -83.096193    25682.057   -19678.504    7342.9757    1.0195472    29.218096    37.295259    42.904535    90.092257    89.532422    90.451656 
 1992000     46465.94    199.46127   -730.56345    2434.7075    4973.5671    732.09853    684.01962     469.7143    72.606644    1958.4391   -2959.6789   -83.603924     25653.15   -19678.343    6913.2024    1.0257768    29.097882    37.307082    42.808679    90.018899    89.432661     90.65593 
 1992200    46196.272     199.5969    -719.3907     2436.363    4952.4171    750.45084    688.36909    453.86749    68.100122    1960.7875   -2963.8046   -84.091957    25635.106   -19679.672    6904.1085    1.0317647    29.025079    37.218412    42.769694    89.958562    89.421075    90.759365 
 1992400    46490.175     205.0831   -749.99201    2503.3299    4991.9816    753.67026    718.33682    437.93501     71.49457    1981.4367   -2969.6778   -83.560342    25659.369   -19679.147    6986.8084    1.0252421    29.079048    37.319921    42.845172    89.908515    89.478985    90.806457 
 1992600     46804.53    197.12418   -586.67708    2406.1799    5012.8282    743.12734    693.60595    460.24879    70.627572    1967.6096   -2953.4571   -82.999121    25675.288   -19676.613    7018.5447    1.0183562     29.15645    37.458855    42.861737    89.585968    89.655965    90.882874 
 1992800    46556.627    202.16333   -79.182267      2467.69    4974.1472    719.20965    694.67951    460.90431    78.427572     1953.221   -2970.7602   -83.441072    25669.551   -19677.865     7388.074    1.0237787    29.075908    37.441191    42.773476    89.373669    89.839315    90.852884 
 1993000    46209.112    199.04373    983.35767    2429.6107    4973.5758    752.70867    701.84396    452.37708    68.724603    1975.6543   -2967.5613   -84.068591    25645.446   -19679.963    8065.8836     1.031478    28.959558    37.356755    42.719203    89.339457    89.952261    90.645063 
 1993200    46242.098    197.10783    863.72594    2405.9804    4900.8587    706.52366    694.68733    422.47813    68.089055    1891.7782   -2968.6502   -84.008621    25659.147   -19681.416    7889.3303    1.0307422    28.994916    37.372113     42.67601    89.652925    90.112205    90.325763 
 1993400    46621.947    196.29623   -319.04289    2396.0737    5003.1389    765.02095    719.59027    445.48683    73.831126    2003.9292   -2974.7623   -83.324167     25652.87   -19678.898    7182.2846    1.0223443    29.096085      37.4487    42.788424    90.131084    90.285397    89.900212 
 1993600    46609.125    198.53749    250.15958    2423.4314    5036.3018     758.1932    698.57755    470.77643     73.41068    2000.9579   -2943.3812   -83.347089    25655.768   -19677.043    7629.7782    1.0226256     29.12564    37.393661    42.799719    90.528425    90.364959    89.502582 
 1993800    46591.572    201.22956    813.44492    2456.2919    4964.4694    733.04297     700.9151    428.66377    75.200203     1937.822   -2949.5295    -83.37849    25654.755   -19678.578    7973.4892    1.0230109     29.12268    37.417891    42.762561    90.574287    90.365874    89.255426 
 1994000    46623.307    197.22812    671.85127    2407.4487    4976.0064     736.6027    698.65972    446.83427    70.047577    1952.1443   -2965.5611   -83.321735    25666.921   -19677.498    7840.2825    1.0223145    29.121181    37.459109    42.745644     90.42624    90.286843    89.242429 
 1994200    46475.236    205.43481    919.70051     2507.623     4952.967    726.08363    675.15575    453.31385    65.373442    1919.9267   -2972.5779   -83.587201    25683.634   -19678.015    8083.9572    1.0255716    29.066007    37.447064    42.702289     90.33434    90.111265    89.391065 
 1994400    46431.186    200.69265     374.5221    2449.7382    4956.7213     727.5179    721.50775    447.02824    77.140289    1973.1942   -2955.5469   -83.666502    25618.389   -19679.315    7660.0675    1.0265446    29.022719    37.469385    42.698577    90.394323    89.777075    89.734546 
 1994600    46792.614    200.55656   -1200.4876     2448.077    4984.6834    742.91657    689.93663    446.93049    71.927582    1951.7113   -2961.4209   -83.020257    25673.883    -19679.49     6613.521    1.0186155     29.00591    37.638808    42.864288    90.399427    89.328995     90.07432 
 1994800    46672.045    199.83258   -238.23303    2439.2398    5047.6858    761.42322    723.54067    455.09636    73.391295    2013.4515   -2935.1857   -83.234726    25648.265   -19678.845     7324.769     1.021247    28.940905     37.58752    42.911237     90.32365    89.053418    90.244294 
 1995000    46402.988    199.77652    353.86006    2438.5556    4952.0244    739.08163    674.22295    443.20581    70.378423    1926.8888   -2968.4848   -83.717344     25670.64    -19677.02    7630.0512    1.0271684    28.881356    37.446701      42.9141    90.109922    88.909276    90.295762 
 1995200    46291.374    202.89458   -586.46611    2476.6159     4932.945    729.25608    684.35968    451.78128    76.534179    1941.9312   -2971.5651   -83.919195    25639.692   -19677.113    7013.6305     1.029645    28.858855    37.359781    42.943942    89.923806    88.885489    90.200103 
 1995400     46555.38    198.05551   -1168.3613    2417.5481    5009.3547    744.56338    710.79263    454.13936    70.120787    1979.6162   -2958.4241   -83.443308    25666.059   -19677.896    6633.6294    1.0238062    28.905919     37.38458    43.088389    89.941817     88.98069    90.102842 
 1995600    46449.028    200.31992   -863.52048    2445.1886      4967.99    740.06215    723.38649    431.51378    75.536143    1970.4986   -2962.2598   -83.634364    25639.375   -19679.624    6828.2199    1.0261503    28.934018       37.315    43.025353     89.94577    89.226641    90.060861 
 1995800    46271.127    203.35452    262.47392    2482.2301    4897.5304    723.27707    692.10463    420.25629    64.722748    1900.3607   -2972.2347   -83.955916    25647.627   -19678.222    7556.8823    1.0300956    28.978486    37.214271    42.907764    89.857622    89.622754    89.937305 
 1996000    46442.383    203.07119    264.48104    2478.7716    5006.2542    737.70408    722.64243    453.56824    69.771221     1983.686   -2967.3393   -83.646331    25669.218    -19679.31    7664.1627    1.0262971     29.12081    37.185018    42.889072    89.836424    89.968429    89.836068 
 1996200    46492.278    195.80035    1010.2425    2390.0207    5023.0874    749.64221     724.1203    456.55775    68.673707     1998.994   -2955.9141   -83.556562    25656.636   -19676.628    8098.0952    1.0251957    29.239796    37.185674    42.759721    89.946859    90.158967    89.819015 
 1996400     46523.12    200.96518    995.38511    2453.0648    4975.7056    729.92565     713.3223     455.3038    73.707009    1972.2588   -2977.0094   -83.501168    25660.157   -19679.701    8104.1312    1.0245161    29.272685    37.180236    42.746526     89.98511    90.316293    89.970289 
 1996600     46342.12    196.09262    1382.1696    2393.5883    5003.1328    751.36669    731.35441    437.82265    66.645854    1987.1896   -2965.9176   -83.827302    25660.437   -19678.576    8330.8636    1.0285176    29.143118    37.206218    42.740437    90.018122     90.46864    90.028745 
 1996800    46240.742    198.59422    668.22865    2424.1239     4997.678    747.55722    706.24884    460.45877    77.230276    1991.4951   -2965.7401   -84.011085    25650.839   -19678.916    7872.4378    1.0307725    28.989445     37.27179    42.798285    90.163678    90.547829    90.039073 
 1997000    46451.201    199.04823    345.60762    2429.6657     4971.987    745.12304    695.53447    455.53622    71.955092    1968.1488   -2962.6018   -83.630451    25645.724   -19679.284    7635.7823    1.0261023    28.921887     37.38394    42.964128    90.148739    90.539815    90.014435 
 1997200     46508.58    195.47323    457.33304    2386.0278    4976.3494    740.14871    715.13317    442.72872    68.841447    1966.8521   -2950.3885   -83.527274    25636.347   -19676.461    7672.5769    1.0248364    28.898435    37.439514    42.987476    90.004146    90.448916    90.031661 
 1997400    46644.187    199.43146    914.56415    2434.3435    5019.0913    752.13537    684.55672    469.56014    79.405224    1985.6574   -2923.4879   -83.284438    25635.682    -19678.76    8075.5741    1.0218569    28.882743    37.518932    43.044252    89.886206    90.258472    90.138429 
 1997600    46552.829     201.1518    980.08326    2455.3427    4960.8786    708.10393     708.2654    446.31853    76.939115     1939.627   -2959.4611    -83.44788    25657.983    -19677.27    8081.6246    1.0238622    28.866539    37.490788    43.016647    89.789754    89.805417    90.255032 
 1997800     46069.92    195.87502     367.8947    2390.9321    4928.2717    732.22098    684.79827     450.2012    69.073011    1936.2935   -2973.0831   -84.322588    25644.131   -19679.069    7566.3859    1.0345945    28.841812    37.291493    42.837849    89.850005    89.294253     90.34758 
 1998000     46203.34    198.56476   -883.87123    2423.7643    4980.5088    741.36285    707.63435    447.50311    74.591569    1971.0919   -2982.7233   -84.079092    25669.517   -19677.377    6808.6956    1.0316069      28.9943    37.179684    42.868608    90.092808    88.974871    90.465652 
 1998200    46435.353    195.49727   -1130.9814    2386.3212    5034.0849    788.00055    712.17032    464.18469    74.155736    2038.5113   -2966.8991   -83.658993    25642.012   -19679.539     6654.492    1.0264525    29.166162    37.101869    42.922582    90.237496    88.830356    90.525336 
 1998400    46533.065    201.25448   -146.78653    2456.5961    5055.0514    775.92783    709.95804    456.70161    70.394156    2012.9816   -2959.7684   -83.483322    25680.289   -19678.451    7412.0328    1.0242971    29.180198    37.120468    42.970852    90.304126    88.850457    90.561848 
 1998600     46316.08    197.07073    548.98085    2405.5275    4985.5227    726.67727    737.28654    455.87476    70.954181    1990.7927   -2972.5281   -83.874432    25644.899    -19677.64    7761.8717    1.0290958    29.160756    37.050524    42.877707    90.275905     89.02772    90.623439 
 1998800    46441.762    200.84664   -630.30386    2451.6178     4952.119    742.13492    691.37036    431.65348    68.023218     1933.182   -2959.5489   -83.647449     25656.61   -19678.124    6976.8286    1.0263109    29.191272    37.104896    42.881792    90.108636    89.349578    90.547086 
 1999000    46627.767    204.07524    -1153.322    2491.0275    4988.2322     780.7722    691.46523    446.85352      73.8752    1992.9661   -2970.4358   -83.313767    25644.861    -19679.16    6694.9799    1.0222168    29.237099    37.158179    42.920805    89.993361     89.76911    90.356698 
 1999200    46504.151    195.54503    30.695338    2386.9042    4979.4431    737.61752    696.02047    460.12259    66.838352    1960.5989   -2957.8741   -83.535229    25653.438    -19676.72    7387.1654     1.024934    29.186178    37.138321    42.904441    89.715567    90.212889    90.160182 
 1999400     46394.24    202.28482    806.52359    2469.1729    4965.9767     750.9484    676.84661    456.57971    68.148173    1952.5229   -2977.6411    -83.73313    25670.657   -19679.562    7980.8534    1.0273621    29.099284    37.152214    42.917376    89.561183    90.592284     90.05432 
 1999600    46341.761    199.04043      1241.48    2429.5705    4969.3052    730.89038    698.82769    454.49695    77.074651    1961.2897   -2963.3118   -83.827952    25651.012   -19679.685    8237.9262    1.0285255    29.053497    37.230957    42.848259     89.51512    90.846552     89.93902 
 1999800    46437.987    197.73714    198.07665    2413.6621    4906.9755    710.51277    686.06191    448.22829     65.09704       1909.9   -2975.1141   -83.654248    25650.946   -19678.757     7454.785    1.0263943    29.087861     37.28852    42.822003    89.517889    90.990194    89.943239 
 2000000    46360.094    200.87152   -233.18109    2451.9216    4923.5235    747.33435    688.31742    447.10089    76.374944    1959.1276   -2979.5166   -83.794802     25625.15   -19681.238     7217.788    1.0281188    29.069818    37.291959    42.771812    89.696103    90.989317    89.997053 
 2000053    46327.898    197.33233    1151.1678    2408.7207    4977.9979    732.73727    699.20356    458.15644    71.076323    1961.1736    -2952.509   -83.853036    25648.623   -19679.289    8164.4993    1.0288333    29.054396    37.290338    42.765773    89.822364    90.950944    90.012825 
Loop time of 21504.8 on 8 procs for 2000000 steps with 4096 atoms

Performance: 8.035 ns/day, 2.987 hours/ns, 93.002 timesteps/s
96.5% CPU use with 8 MPI tasks x no OpenMP threads

MPI task timing breakdown:
Section |  min time  |  avg time  |  max time  |%varavg| %total
---------------------------------------------------------------
Pair    | 12719      | 13213      | 13476      | 238.9 | 61.44
Bond    | 308.58     | 312.36     | 315.47     |  12.6 |  1.45
Kspace  | 5021.1     | 5281.5     | 5773.2     | 374.2 | 24.56
Neigh   | 650.03     | 650.19     | 650.33     |   0.4 |  3.02
Comm    | 474.94     | 483.91     | 491.53     |  26.7 |  2.25
Output  | 3.2863     | 3.5712     | 5.552      |  39.6 |  0.02
Modify  | 1441       | 1459.5     | 1482.8     |  30.3 |  6.79
Other   |            | 101        |            |       |  0.47

Nlocal:        512.000 ave         518 max         500 min
Histogram: 1 0 0 1 1 0 0 2 0 3
Nghost:        8138.88 ave        8161 max        8115 min
Histogram: 1 1 0 2 0 0 0 3 0 1
Neighs:        259341.0 ave      263914 max      251844 min
Histogram: 1 0 0 1 1 1 0 1 1 2

Total # of neighbors = 2074729
Ave neighs/atom = 506.52563
Ave special neighs/atom = 6.0000000
Neighbor list builds = 50578
Dangerous builds = 0

write_data      data.${NAME}
write_data      data.ar.200
System init for write_data ...
PPPM initialization ...
  using 12-bit tables for long-range coulomb (../kspace.cpp:340)
  G vector (1/distance) = 0.26344726
  grid = 32 32 32
  stencil order = 5
  estimated absolute RMS force accuracy = 0.00035099323
  estimated relative force accuracy = 1.0570057e-06
  using double precision KISS FFT
  3d grid and FFT values/proc = 12167 4096
WARNING: Fix recenter should come after all other integration fixes (../fix_recenter.cpp:133)

write_restart   restart.${NAME}
write_restart   restart.ar.200
System init for write_restart ...
PPPM initialization ...
  using 12-bit tables for long-range coulomb (../kspace.cpp:340)
  G vector (1/distance) = 0.26344726
  grid = 32 32 32
  stencil order = 5
  estimated absolute RMS force accuracy = 0.00035099323
  estimated relative force accuracy = 1.0570057e-06
  using double precision KISS FFT
  3d grid and FFT values/proc = 12167 4096
WARNING: Fix recenter should come after all other integration fixes (../fix_recenter.cpp:133)

Total wall time: 5:58:25
