LAMMPS data file via write_data, version 29 Sep 2021, timestep = 2000053

4096 atoms
6 atom types
3584 bonds
6 bond types
4608 angles
8 angle types
4096 dihedrals
6 dihedral types
1536 impropers
3 improper types

-4.072198290120593 24.982197690120845 xlo xhi
-4.374168805456785 32.91616861843547 ylo yhi
-6.751839338152266 36.00783891814669 zlo zhi
-0.008347303575604308 -0.7097554009026502 0.13242887223544744 xy xz yz

Masses

1 12.01
2 12.01
3 12.01
4 16
5 1.008
6 1.008

Pair Coeffs # lj/cut/coul/long

1 0.086 3.39967
2 0.086 3.39967
3 0.086 3.39967
4 0.21 2.95992
5 0.015 2.51055
6 0.015 2.59964

Bond Coeffs # harmonic

1 343.1 1.088
2 547.3 1.346
3 342.5 1.088
4 354.5 1.482
5 310.7 1.112
6 637.7 1.218

Angle Coeffs # harmonic

1 49.6 119.94
2 65.5 120.42
3 38.1 116.9
4 49.5 120.45
5 46.7 114.89
6 68.8 123.2
7 46.5 116.46
8 54.2 120.7

Dihedral Coeffs # charmm

1 2.175 2 180 0
2 2.175 2 180 0
3 6.65 2 180 0
4 6.65 2 180 0
5 2.175 2 180 0
6 2.175 2 180 0

Improper Coeffs # cvff

1 10.5 -1 2
2 1.1 -1 2
3 1.1 -1 2

Atoms # full

3108 389 4 -0.488411 5.924166334318355 5.07700024915524 -5.3994189484252075 0 0 1
3124 391 4 -0.488411 3.7974337742694204 9.642253537169987 -4.681641092931598 0 0 1
3892 487 4 -0.488411 4.236165747487897 0.09895048610189382 -4.746150292709713 0 1 1
3083 386 3 0.512161 0.4723493120537071 9.043069245214436 -5.319604442722104 0 0 1
3147 394 3 0.512161 7.948254576720679 9.087376781162158 -5.442162024935062 0 0 1
3915 490 3 0.512161 8.355539359439055 -0.3621045236464793 -5.1895381624984624 0 1 1
3851 482 3 0.512161 0.8688608612396913 0.4569263970309039 -5.131369469752077 0 1 1
3920 490 6 0.1559 7.12851596363204 -2.1147874444715247 -4.813509523630739 0 1 1
3852 482 4 -0.488411 0.687858292679985 0.676017692972853 -3.958100685244867 0 1 1
3148 394 4 -0.488411 7.707527137450809 9.519897013405703 -4.321411443254454 0 0 1
3300 413 4 -0.488411 -1.2404414242960087 5.003930398587425 -5.407919172375445 1 0 1
3099 388 3 0.512161 2.726779079362511 3.9437815626480104 -5.188768105613752 0 0 1
3101 388 5 -0.008385 3.5032082620348364 3.1977946717775994 -4.743654099852479 0 0 1
3122 391 2 -0.169515 3.3984530115055613 8.075698348404092 -2.9700914788898873 0 0 1
3123 391 3 0.512161 4.208467491749778 9.104062725096083 -3.66460526253539 0 0 1
3128 391 6 0.1559 2.4938381716456335 7.849136480394609 -3.5325865151632168 0 0 1
3891 487 3 0.512161 3.9616544939969374 -0.6331866572364533 -3.84977204756637 0 1 1
3896 487 6 0.1559 5.330201158849174 0.3023555895481257 -2.4732805479616244 0 1 1
3107 389 3 0.512161 5.962469689217158 4.619563940150796 -4.276727222899924 0 0 1
3125 391 5 -0.008385 5.1950584407065445 9.345411556207097 -3.26026885187735 0 0 1
3299 413 3 0.512161 -0.9026388602083449 4.1631727648154895 -4.5543803944402725 1 0 1
3100 388 4 -0.488411 2.250097406255658 4.821773560309482 -4.537117702920007 0 0 1
3084 386 4 -0.488411 0.4771919077678031 9.2663342919249 -4.151209555073087 0 0 1
3916 490 4 -0.488411 8.246569908733967 0.12304661022836104 -4.078456170895466 0 1 1
3301 413 5 -0.008385 -0.14950988831353323 3.3818556984744554 -4.695950561172512 1 0 1
3362 421 2 -0.169515 6.824739392730114 12.447571146889567 -3.3041004397696168 0 0 1
3112 389 6 0.1559 7.114013158934623 2.857690840196323 -4.827556872273247 0 0 1
3109 389 5 -0.008385 5.501689969024832 5.0853780433865365 -3.434301097672791 0 0 1
3890 487 2 -0.169515 4.667438122182719 -0.5746710339535268 -2.580754721457075 0 1 1
3106 389 2 -0.169515 6.670458653667537 3.3792427696459515 -3.962459294340544 0 0 1
3298 413 2 -0.169515 -1.3945270072893141 4.265196522186161 -3.168680515047891 1 0 1
3554 445 2 -0.169515 -0.5287428370805725 12.428094047872078 -3.2052128622601033 1 0 1
3560 445 6 0.1559 0.16582352975798387 11.929854895473536 -3.8226055932666076 1 0 1
3893 487 5 -0.008385 3.2118880077814476 -1.414223068133218 -4.045979975882277 0 1 1
3360 420 6 0.1559 2.572755128071078 11.61089563486709 -5.002260868391345 0 0 1
815 102 6 0.19089 1.1854838361424442 -2.776834109609956 -3.3518023085728195 0 1 0
319 40 6 0.19089 3.5035238434934595 12.380164438030054 -2.115768930191276 0 0 0
3553 445 1 -0.38353 -0.8300549544231361 11.941688784660661 -1.932613766982148 1 0 1
110 14 6 0.19089 8.028957878641217 6.443409225216599 -2.7912227253431827 0 0 0
111 14 6 0.19089 7.067490543720712 8.015365082243898 -2.3281089131213406 0 0 0
3361 421 1 -0.38353 6.9503808635905315 11.983364240464338 -2.0511476663164236 0 0 1
46 6 6 0.19089 0.8191503029488134 6.249380421809799 -2.2391015726463976 0 0 0
62 8 6 0.19089 2.091384542762731 2.2541863599819636 -2.8744774949011123 0 0 0
63 8 6 0.19089 2.925828071197317 3.6924262032614186 -2.2039232214930573 0 0 0
3889 487 1 -0.38353 4.413453917782786 -1.474718019471922 -1.612160767921532 0 1 1
879 110 6 0.19089 7.853175920460311 -2.0286772618049147 -2.259546504116317 0 1 0
3121 391 1 -0.38353 3.684833011543525 7.527498458757607 -1.7656167344809726 0 0 1
3105 389 1 -0.38353 6.7073341815880845 2.8945520369071467 -2.7142922906726943 0 0 1
3111 389 6 0.19089 7.028488616250009 1.9272698813643123 -2.402448254566992 0 0 1
3110 389 6 0.19089 6.112547210596058 3.4540101125138123 -1.9790274738110094 0 0 1
47 6 6 0.19089 -0.1986111512647572 7.794939732173429 -1.799305117938622 0 0 0
3297 413 1 -0.38353 -1.0213952868731768 3.3861010106483516 -2.1875146555777585 1 0 1
41 6 1 -0.38353 0.21317842449029464 6.810772291282763 -1.506929144955202 0 0 0
313 40 1 -0.38353 3.085838308632132 11.43140756153022 -1.8566943418375903 0 0 0
873 110 1 -0.38353 8.123980440030898 -2.978981863930718 -1.7353755952595638 0 1 0
105 14 1 -0.38353 7.521349274006478 7.071530390475661 -2.020480361856869 0 0 0
3127 391 6 0.19089 3.0196669859871212 6.853166488916626 -1.2393748088663967 0 0 1
3559 445 6 0.19089 -0.4291961209581696 11.03199727436047 -1.521863728009257 1 0 1
3303 413 6 0.19089 -1.4295283773872791 3.4583744328333417 -1.174421472598909 1 0 1
814 102 6 0.19089 0.18953410289551514 -1.5764349319681266 -2.3515259495970353 0 1 0
318 40 6 0.19089 2.60322951371963 10.828737632484927 -2.59287288219706 0 0 0
57 8 1 -0.38353 2.5451405825078033 2.6729649544682372 -1.980818911910867 0 0 0
809 102 1 -0.38353 0.6271913705624661 -2.516524771711985 -2.402820529637763 0 1 0
3126 391 6 0.19089 4.6121376384133175 7.837486072128652 -1.3140900453316267 0 0 1
3894 487 6 0.19089 3.6160641315174136 -2.1864167349468406 -1.7357427086420625 0 1 1
3302 413 6 0.19089 -0.3891522301538182 2.52382504767934 -2.362943925734405 1 0 1
3367 421 6 0.19089 7.366070124964518 10.966881880314878 -1.9795295409585227 0 0 1
314 40 2 -0.169515 3.015780340604595 11.134008138966703 -0.521505865586823 0 0 0
106 14 2 -0.169515 7.337779897131432 6.682619992549559 -0.6909386442509762 0 0 0
810 102 2 -0.169515 0.7820547399846488 -3.1873363353460067 -1.2262361004978937 0 1 0
61 8 5 -0.008385 1.8563110140485637 0.14442748865368993 -1.645287825788504 0 0 0
42 6 2 -0.169515 0.12303378204198365 6.350315333618601 -0.2461247910157507 0 0 0
58 8 2 -0.169515 2.817586987132374 1.9559243430731135 -0.8489646125563794 0 0 0
112 14 6 0.1559 6.914218808584622 7.4172489630075695 -0.009418991534226429 0 0 0
48 6 6 0.1559 -0.5560180998205831 6.824189916401416 0.5233409863329328 0 0 0
3850 482 2 -0.169515 0.41789321322282585 -0.8575169146128052 -5.755832420874028 0 1 1
317 40 5 -0.008385 1.8010046284942254 9.37191533488509 -0.6961090523105584 0 0 0
3856 482 6 0.1559 -0.05810826009489675 -1.5533774419316944 -5.117018692611618 0 1 1
3368 421 6 0.1559 7.293457546587379 11.892025839267534 -4.141500117413898 0 0 1
3914 490 2 -0.169515 7.72323469679328 -1.6408727832808874 -5.56269824751025 0 1 1
3152 394 6 0.1559 6.675404338747997 7.468286457005239 -5.2035710923109315 0 0 1
878 110 6 0.19089 8.480003073304577 -3.7327352267452314 -2.3864717482728324 0 1 0
3088 386 6 0.1559 -0.1356638146040587 6.95690662460625 -5.074815080249443 0 0 1
3304 413 6 0.1559 -2.1005261064267673 5.041391212184222 -2.996462849292468 1 0 1
3354 420 2 -0.169515 2.363904625894454 12.349931317414581 -5.79430040340869 0 0 1
3082 386 2 -0.169515 0.17989021634102292 7.672774142364362 -5.85170858013724 0 0 1
3366 421 6 0.19089 6.638937197236391 12.564520906681219 -1.1663490524752627 0 0 1
3162 396 2 -0.169515 9.283841818468034 3.7471027799750125 -6.61140630465733 0 0 1
126 16 6 0.19089 9.546120351831544 1.890445677755424 -2.899503186236402 0 0 0
3895 487 6 0.19089 4.823220420374068 -1.4184266064639117 -0.5874764977848219 0 1 1
125 16 5 -0.008385 9.482004004366823 0.018406178316443596 -1.328684689065173 0 0 0
109 14 5 -0.008385 8.441051171677271 4.760449006127642 -0.8033099426864085 0 0 0
320 40 6 0.1559 3.470812326412216 11.805859794323252 0.24906598650692047 0 0 0
874 110 2 -0.169515 8.06775866549316 -3.1389160772809706 -0.4148045575046746 0 1 0
880 110 6 0.1559 7.822577336998955 -2.3073534218544025 0.21791988772226123 0 1 0
64 8 6 0.1559 3.2606572884945884 2.4135653542163618 0.06064476206573399 0 0 0
315 40 3 0.512161 2.3338006026367144 9.95714374638438 0.046256439717095255 0 0 0
260 33 4 -0.488411 5.749386141509657 10.037802046678447 0.18654998545439483 0 0 0
20 3 4 -0.488411 4.442517965422708 5.254298796533985 0.4324624533692063 0 0 0
196 25 4 -0.488411 -1.191165582908449 0.8680175039779537 -0.28134041025738465 1 0 0
4 1 4 -0.488411 6.507572913564112 0.6541675273815587 -0.13227693091644355 0 0 0
59 8 3 0.512161 2.3660733829456864 0.5497635195741444 -0.7161248222161314 0 0 0
379 48 3 0.512161 9.22773258037051 9.75265827912135 -0.03861746994407422 0 0 0
45 6 5 -0.008385 1.4325871105085504 4.620177781724877 -0.5351769321017423 0 0 0
43 6 3 0.512161 0.7572234523945036 5.092133468291489 0.20898429101835436 0 0 0
107 14 3 0.512161 7.854770746468024 5.396296482478547 -0.10341959451895466 0 0 0
811 102 3 0.512161 0.21173482337556876 -2.857602110134881 0.11183382732536096 0 1 0
24 3 6 0.1559 4.4765364007623125 7.5988767895162255 1.4122086042783497 0 0 0
19 3 3 0.512161 4.338053086519891 5.453742132314647 1.5996547498542437 0 0 0
264 33 6 0.1559 6.096343952442177 12.3956734582181 1.3292869640775002 0 0 0
452 57 4 -0.488411 -1.5860521898996833 9.177995670798245 0.41851883350678953 1 0 0
259 33 3 0.512161 5.81453427992758 10.307238907018414 1.4000969442023425 0 0 0
195 25 3 0.512161 -0.9128574969210277 1.5012635823753038 0.7308370543327989 1 0 0
456 57 6 0.1559 -0.7149855714252024 11.391080341531367 1.3254367119323813 1 0 0
44 6 4 -0.488411 0.7928357660382012 4.700284976208011 1.3584757852104534 0 0 0
108 14 4 -0.488411 7.793750728866678 5.190725810372157 1.0907593122917678 0 0 0
316 40 4 -0.488411 2.417687072240471 9.612341404165472 1.1959837870220937 0 0 0
451 57 3 0.512161 -1.5417873598540695 9.49143049177214 1.6205997493450646 1 0 0
3 1 3 0.512161 6.057029289106336 0.9692202533468477 0.9815670998751269 0 0 0
60 8 4 -0.488411 2.256708815280443 -0.09526982841364304 0.3349434102364608 0 0 0
8 1 6 0.1559 7.391754120874523 2.666373011193808 1.448690773125481 0 0 0
792 99 6 0.1559 3.2893509727426506 -2.7571029288043207 1.2174013496389078 0 1 0
258 33 2 -0.169515 6.047389167153419 11.610616482880848 2.056764964798923 0 0 0
2 1 2 -0.169515 6.642039161579308 1.9972002082392977 1.8818173640158733 0 0 0
786 99 2 -0.169515 4.1663834029351845 -2.802064375487661 1.7716463499295028 0 1 0
194 25 2 -0.169515 -1.4927321165234753 1.0196285055807253 2.0113860849207477 1 0 0
197 25 5 -0.008385 -0.19408599787605604 2.3910404248916186 0.7772280932971709 1 0 0
813 102 5 -0.008385 -0.2530255116953978 -1.8716218252750254 0.3208336892892678 0 1 0
380 48 4 -0.488411 8.705828221817022 9.586954823475713 1.0524649761812688 0 0 0
261 33 5 -0.008385 5.649015918249819 9.517170218843011 2.1281365715841645 0 0 0
450 57 2 -0.169515 -0.9494425282967425 10.75245889354591 2.1070384701010063 1 0 0
18 3 2 -0.169515 4.31067153419086 6.834508353230818 2.1247994766767224 0 0 0
21 3 5 -0.008385 4.25356495005854 4.6329295805126405 2.3271037145530435 0 0 0
453 57 5 -0.008385 -1.86921683265859 8.766383226010346 2.3987783474698023 1 0 0
31 4 6 0.19089 1.7486752354263357 2.2087916448917255 2.434424239327301 0 0 0
783 98 6 0.19089 -0.08234673098890921 -2.44085372832198 3.2762126976352484 0 1 0
14 2 6 0.19089 1.3074048081876086 7.529105668825639 2.839638266435479 0 0 0
257 33 1 -0.38353 6.160249880835001 11.701115016257356 3.4261861798754314 0 0 0
198 25 6 0.19089 -0.42794540153522365 2.313601047233508 3.4620905356236946 1 0 0
350 44 6 0.19089 9.229790081341052 12.66668953391105 2.893393464196519 0 0 0
5 1 5 -0.008385 5.141651509033498 0.43688316665323773 1.3446743744726337 0 0 0
286 36 6 0.19089 1.5844824827979098 13.148225419927364 2.8956717649116364 0 0 0
78 10 6 0.19089 7.920152123585919 8.192928586236736 3.095235775054082 0 0 0
17 3 1 -0.38353 4.12713394989734 7.149723380361939 3.4244531102063807 0 0 0
79 10 6 0.19089 6.921161965876055 6.702953835977662 3.582961594052378 0 0 0
287 36 6 0.19089 2.939201178922764 11.829296139843937 2.9310148097650313 0 0 0
15 2 6 0.19089 -0.0788946727943279 6.355598830733755 3.3490466334863704 0 0 0
1 1 1 -0.38353 6.204768764041964 2.17874969681973 3.1823590874465193 0 0 0
73 10 1 -0.38353 7.448721985225277 7.62284968648597 3.886617432397058 0 0 0
9 2 1 -0.38353 0.603619413172398 7.1977428799372465 3.596638399409816 0 0 0
7 1 6 0.19089 6.687708161746957 2.90227387822409 3.8318650139752464 0 0 0
846 106 6 0.19089 8.59422821440915 -0.10666437771900737 2.952164007173847 0 1 0
785 99 1 -0.38353 4.40457980256246 -1.9659062679747772 2.8038318322635654 0 1 0
791 99 6 0.19089 3.691572582295846 -1.2415782685019872 3.0491209413736637 0 1 0
345 44 1 -0.38353 9.908803262550343 12.245240232159606 3.605840733860651 0 0 0
782 98 6 0.19089 0.43104873230874263 -0.657856541434853 3.031283972890556 0 1 0
281 36 1 -0.38353 2.4275864015488464 12.66093411031562 3.402820097705769 0 0 0
3315 415 3 0.512161 -2.943547268217792 9.096263260219423 -3.4213317134679992 1 0 1
4086 511 6 0.19089 -3.163455328458229 -0.6216841382362704 -0.6026514706005335 1 1 1
4085 511 5 -0.008385 -2.9513239509254525 1.1665832539013443 -2.7221746034336354 1 1 1
94 12 6 0.19089 9.973088816848724 3.739343787283451 2.4438779629102463 0 0 0
3558 445 6 0.19089 -1.5679795982157698 12.474071955818287 -1.30170135249623 1 0 1
382 48 6 0.19089 9.940444060298153 10.601963165030305 -2.491372608740032 0 0 0
377 48 1 -0.38353 10.095955771577072 11.389455381706572 -1.6984928536392774 0 0 0
4083 511 3 0.512161 -2.9940322367529664 0.28503345929282825 -3.4211216694320097 1 1 1
790 99 6 0.19089 5.221722113274522 -2.1155936685526555 3.464108041956788 0 1 0
199 25 6 0.19089 -1.606152613141933 1.0532097511727232 4.095293842891131 1 0 0
847 106 6 0.19089 8.0550281354359 -1.84313012847579 2.869536318075559 0 1 0
449 57 1 -0.38353 -0.706784313971389 10.957128376735263 3.432222332503928 1 0 0
23 3 6 0.19089 4.079751949932425 8.202236472159736 3.755932973517618 0 0 0
193 25 1 -0.38353 -1.1256516818987603 1.515400127601209 3.241357039551554 1 0 0
25 4 1 -0.38353 2.3966628226648465 2.4228920241199385 3.279888326197373 0 0 0
454 57 6 0.19089 -1.1430334511100153 10.250930648298844 4.103023318935431 1 0 0
30 4 6 0.19089 3.289384430048116 1.7489877244910323 3.4093368828172217 0 0 0
6 1 6 0.19089 5.482692028695449 1.5065708189019025 3.6276684681395786 0 0 0
841 106 1 -0.38353 8.18577095475717 -0.9614899766564882 3.483094180761011 0 1 0
263 33 6 0.19089 6.523146271002579 12.647071803323122 3.889413884307219 0 0 0
22 3 6 0.19089 4.003275724628096 6.504436435806915 4.282301213704516 0 0 0
777 98 1 -0.38353 0.25821600818378665 -1.4721757166288185 3.6766152837696495 0 1 0
455 57 6 0.19089 -0.33185556073140493 11.876207011851434 3.854380327246073 1 0 0
93 12 5 -0.008385 9.64041804897563 5.632417110542237 4.041395735275087 0 0 0
200 25 6 0.1559 -2.1259601910273798 0.12093230958934577 1.8582475310499955 1 0 0
3163 396 3 0.512161 9.795493292435644 4.184760640331723 -5.289381017238442 0 0 1
378 48 2 -0.169515 9.782697747321867 11.065257235194336 -0.4005151864453911 0 0 0
121 16 1 -0.38353 9.96212644035275 2.5250554205999065 -2.0754468261928247 0 0 0
3164 396 4 -0.488411 9.360889420386945 5.034634001766988 -4.5585760489604725 0 0 1
3318 415 6 0.19089 -2.7182562538840944 7.582941643608508 -1.2219542153239455 1 0 1
211 27 3 0.512161 -3.2764783143308396 5.738448509777297 1.4339765862962803 1 0 0
3317 415 5 -0.008385 -2.1924675207876683 9.443107352789287 -2.706044428726777 1 0 1
210 27 2 -0.169515 -2.883752498284071 5.575760389123568 2.8746158336039116 1 0 0
122 16 2 -0.169515 10.028123064214737 2.0226855472180563 -0.8096996470721463 0 0 0
805 101 5 -0.008385 5.3052871884025645 -3.638127754330506 6.713764651819629 0 1 0
89 12 1 -0.38353 10.236586930901463 3.0878536748898804 3.3147497124357823 0 0 0
215 27 6 0.19089 -2.953095176048151 6.181770632239279 4.8526957351357325 1 0 0
262 33 6 0.19089 5.95873369978028 10.860981646810366 4.115987658308022 0 0 0
13 2 5 -0.008385 1.8202852912803849 9.549771125528013 4.183928381633104 0 0 0
982 123 6 0.19089 -2.3889546707275215 -2.346527546785836 4.4799535456824575 1 1 0
346 44 2 -0.169515 9.966582694828677 12.737175599039386 4.870398668876364 0 0 0
32 4 6 0.1559 1.3656548683855536 4.218466544896722 3.86181919145249 0 0 0
26 4 2 -0.169515 2.1639327905364074 3.4908999402002014 4.033361623172517 0 0 0
778 98 2 -0.169515 0.2995229384383996 -1.269530148109101 5.0037665304344205 0 1 0
784 98 6 0.1559 0.01128141083927281 -2.0962561775558415 5.553710896582768 0 1 0
10 2 2 -0.169515 0.5695121776068693 7.796394036443604 4.785077121900958 0 0 0
842 106 2 -0.169515 7.767978106780037 -0.854884784793922 4.760067545721249 0 1 0
77 10 5 -0.008385 8.69375745150953 9.825325241323338 4.884913671810132 0 0 0
845 106 5 -0.008385 8.432304638462444 1.2201289917176654 5.069962012166718 0 1 0
74 10 2 -0.169515 7.496404006462071 8.03961467706745 5.208101807485848 0 0 0
843 106 3 0.512161 7.8334370192091916 0.424009406273481 5.552546176980268 0 1 0
282 36 2 -0.169515 2.6892628659904223 12.847595282348479 4.691719689637603 0 0 0
16 2 6 0.1559 -0.08425177661537116 7.4484154507262295 5.535492196839908 0 0 0
288 36 6 0.1559 3.4757545810576667 12.269263944792296 5.14336673530309 0 0 0
75 10 3 0.512161 8.292682581300996 9.207830136167145 5.642097796814378 0 0 0
11 2 3 0.512161 1.295898374632991 9.084287061222025 5.050557929539819 0 0 0
91 12 3 0.512161 9.914425475039229 5.026920255070691 4.857963703822172 0 0 0
27 4 3 0.512161 2.987024943652301 3.7801487698771385 5.279287907794567 0 0 0
80 10 6 0.1559 7.017159803696258 7.475641102345322 5.922086449281865 0 0 0
779 98 3 0.512161 0.6993513751446355 -0.029519133910577554 5.7599198012487705 0 1 0
29 4 5 -0.008385 3.918080581990269 3.0990183446667263 5.4766881448938065 0 0 0
781 98 5 -0.008385 1.005397715024961 0.82414346471377 5.12660514638759 0 1 0
228 29 4 -0.488411 -0.9379560095094289 4.100125816046652 5.2466364601531215 1 0 0
36 5 4 -0.488411 6.675552067917587 4.845832040039478 5.577081810939305 0 0 0
52 7 4 -0.488411 4.462566994993822 9.78911470335091 5.844934616040717 0 0 0
984 123 6 0.1559 -3.9260676814606885 -1.6202318726911502 1.8743098076036624 1 1 0
123 16 3 0.512161 9.674185378498022 0.6254521226688565 -0.43373796175218526 0 0 0
216 27 6 0.1559 -2.3109687022381715 4.690625535820866 3.1246533771640106 1 0 0
3146 394 2 -0.169515 7.299101664559286 7.906148968049059 -5.958915870552934 0 0 1
124 16 4 -0.488411 9.892352518456532 0.16054549435191978 0.7094558616373945 0 0 0
244 31 4 -0.488411 -2.9778962022373934 9.36733821676941 6.095341418783445 1 0 0
90 12 2 -0.169515 10.23789941196995 3.5934185551929283 4.565469441743705 0 0 0
381 48 5 -0.008385 9.203672492656183 9.034112900581613 -0.9050491724434737 0 0 0
978 123 2 -0.169515 -3.2765754103108216 -2.152806768561346 2.558436155053581 1 1 0
1012 127 4 -0.488411 -2.8045543001714583 0.4866171888415857 6.17976971936441 1 1 0
820 103 4 -0.488411 3.848549217720226 0.5860011581340132 5.571621809369201 0 1 0
848 106 6 0.1559 7.310478720493601 -1.7569100927955765 5.221119705821879 0 1 0
28 4 4 -0.488411 2.7840009777583092 4.787984653369703 5.908606952559591 0 0 0
844 106 4 -0.488411 7.39013914802155 0.5130597230897501 6.691548849471847 0 1 0
824 103 6 0.1559 3.099906186517325 -1.7907394086022852 6.6014049252618765 0 1 0
227 29 3 0.512161 -0.7444559788814205 3.6098639350977675 6.343609862390263 1 0 0
229 29 5 -0.008385 -0.826757747657897 2.480899160738918 6.508361787511738 1 0 0
819 103 3 0.512161 4.327708422891966 0.08834544697382209 6.562530235754865 0 1 0
780 98 4 -0.488411 0.549989006522159 0.07177448692299247 6.9508394195652965 0 1 0
76 10 4 -0.488411 8.484640456043188 9.480426839195767 6.861914475096402 0 0 0
4081 511 1 -0.38353 -3.3758467438017226 -1.3304011096102752 -1.4557859482564268 1 1 1
1033 130 1 -0.38353 0.6106366948756776 8.418426757063482 14.536779516924035 0 0 0
3316 415 4 -0.488411 -3.074849987068596 9.694646080447916 -4.506429138913333 1 0 1
3917 490 5 -0.008385 9.032296852154543 0.16147308798082008 -5.974645805298523 0 1 1
3334 417 6 0.19089 5.107510867643258 10.438345809543113 -6.569894387564001 0 0 1
3313 415 1 -0.38353 -3.409762499977876 7.16877478126498 -1.9366884904322967 1 0 1
3355 420 3 0.512161 2.5031107233711136 13.762731300936178 -5.399005128777253 0 0 1
3192 399 6 0.1559 10.082753690093616 7.671502909612229 -4.15722298356519 0 0 1
483 61 3 0.512161 -1.4083614800739817 13.886912803122373 6.484656014062674 1 0 0
977 123 1 -0.38353 -3.128167872151357 -1.8215790270235297 3.8611058903942794 1 1 0
213 27 5 -0.008385 -3.786733975722316 6.69503291254723 1.1729614523664527 1 0 0
996 125 4 -0.488411 -1.3730505222718516 -4.067807651477029 5.705988858042334 1 1 0
979 123 3 0.512161 -2.51768865962509 -3.3489650932264623 1.9808563091529994 1 1 0
4084 511 4 -0.488411 -2.7794779448034914 0.4768571473841533 -4.639755905111091 1 1 1
3363 421 3 0.512161 6.2216460332639585 13.812798686365635 -3.610789136775258 0 0 1
3853 482 5 -0.008385 1.4580779016119094 1.1465707759096644 -5.868549063291725 0 1 1
4087 511 6 0.19089 -3.4771434230702574 -2.384788753542875 -1.2186214768935368 1 1 1
3877 485 5 -0.008385 5.665363743173389 -3.960640690889124 -3.5512911999337335 0 1 1
3556 445 4 -0.488411 -0.8023978016803558 14.024991771429079 -4.951269450691532 1 0 1
4088 511 6 0.1559 -3.358967504701306 -1.7646314317599834 -3.538004800101048 1 1 1
3869 484 5 -0.008385 1.5671558628491797 -4.150852811805734 -5.994346006547719 0 1 1
886 111 6 0.19089 10.134566474597571 -2.392471109851062 8.6057766436409 0 1 0
4069 509 5 -0.008385 -1.7841301591836352 -3.9342509906713983 -2.9189635931350746 1 1 1
4055 507 6 0.19089 -2.314681509849927 -2.1316646935085104 -5.8933258314058055 1 1 1
983 123 6 0.19089 -3.627686170166298 -0.9608496301233921 4.339728764131708 1 1 0
3271 409 6 0.19089 -1.7395062785316682 2.1259804991316225 -6.358243497181178 1 0 1
209 27 1 -0.38353 -3.3101383724273963 6.4072634806491555 3.8583546401463984 1 0 0
787 99 3 0.512161 5.123577260020047 -3.948513445229196 1.4071299590417237 0 1 0
12 2 4 -0.488411 1.1865746194094617 9.671461267107356 6.132374862109456 0 0 0
56 7 6 0.1559 3.448215546845318 7.538679919818615 6.753701529554251 0 0 0
997 125 5 -0.008385 -2.4632919125516826 -3.9560589378166497 7.398012755951433 1 1 0
296 37 6 0.1559 6.7847033597741015 11.999647454804599 6.339492276188343 0 0 0
37 5 5 -0.008385 7.304880568041744 3.2031999802644777 6.615942506250455 0 0 0
35 5 3 0.512161 6.608319959316603 4.069717863720846 6.5064172907436895 0 0 0
488 61 6 0.1559 0.04393043958089324 12.25002864837944 6.434031380548401 1 0 0
1222 153 6 0.19089 -2.163882324618314 1.554094682471633 14.555516629915381 1 0 0
92 12 4 -0.488411 9.864725800720029 5.408648107143172 6.012147829574348 0 0 0
51 7 3 0.512161 4.378417041500821 9.436576749727404 6.968275543098086 0 0 0
480 60 6 0.1559 -3.9612156786852313 12.146341344537419 6.421451801553141 1 0 0
243 31 3 0.512161 -2.8341333058794835 9.015586455724794 7.211537627532609 1 0 0
509 64 5 -0.008385 -3.734378210209679 11.58296334035254 0.8548612981410795 1 0 0
3335 417 6 0.19089 6.254036122813989 11.87609144115364 -6.256726181844056 0 0 1
3098 388 2 -0.169515 2.495441499807519 3.916169231798478 -6.682251771168382 0 0 1
1301 163 5 -0.008385 5.0242217426357545 14.303402681282726 13.929188926296543 0 0 0
127 16 6 0.19089 10.149103282708616 3.615932394011776 -2.3335760757365103 0 0 0
2004 251 4 -0.488411 -2.9528134593146493 -3.9843000658053205 11.386583602593898 1 1 0
3314 415 2 -0.169515 -3.652952363410432 7.803987906757085 -3.093857736555871 1 0 1
212 27 4 -0.488411 -2.930173122302029 4.9810067999148435 0.5708216639357317 1 0 0
2005 251 5 -0.008385 -2.4041772274295963 -4.0442328361323625 13.26063711165548 1 1 0
3296 412 6 0.1559 -3.9274928976677987 2.772440729065161 -4.93163713983272 1 0 1
364 46 4 -0.488411 8.38997157202279 14.142923075048442 0.9120841699839071 0 0 0
292 37 4 -0.488411 5.8923626807651015 14.30800020539727 5.4200687051610785 0 0 0
3149 394 5 -0.008385 8.579528552375127 9.700667458328363 -6.113140560067705 0 0 1
3555 445 3 0.512161 -1.139923751633957 13.622849330762705 -3.8243168868735102 1 0 1
789 99 5 -0.008385 6.053646428789256 -3.936804668422355 1.9962330913972188 0 1 0
348 44 4 -0.488411 9.40501753028571 14.270812200426258 6.540572763213984 0 0 0
3419 428 3 0.512161 9.748441617320601 13.829381497026311 -5.079804562581406 0 0 1
365 46 5 -0.008385 8.641904319428194 14.014376482934026 -1.0097689524756426 0 0 0
214 27 6 0.19089 -3.8772878423571067 7.317062017126975 3.7002877131753955 1 0 0
3356 420 4 -0.488411 2.882414094201791 14.054348591599807 -4.277668621445436 0 0 1
384 48 6 0.1559 9.785580309473731 11.82185114657025 0.43733197180192196 0 0 0
347 44 3 0.512161 9.162541340357134 13.849874655146253 5.414297914347607 0 0 0
4082 511 2 -0.169515 -3.382002968182939 -1.022983838615176 -2.7721832295980677 1 1 1
3549 444 5 -0.008385 -3.558496476620553 12.36433346074642 -5.268026127924348 1 0 1
349 44 5 -0.008385 8.314862902269017 14.228631008063038 4.851567110535575 0 0 0
224 28 6 0.1559 -3.8822373224727604 3.020395368490359 5.365589951751243 1 0 0
510 64 6 0.19089 -3.8164368803460462 12.670053292394499 -1.2814269909452722 1 0 0
860 108 4 -0.488411 9.410600746400942 -4.077634821031517 6.269897229026377 0 1 0
284 36 4 -0.488411 2.244496231709566 14.08125633310227 6.638453436533769 0 0 0
818 103 2 -0.169515 3.7839996557262854 -1.1361631150104397 7.18934536043154 0 1 0
1011 127 3 0.512161 -2.5495697403243005 0.10389986244006763 7.319400139583244 1 1 0
290 37 2 -0.169515 6.278004154685107 12.561686416128973 7.042904739672771 0 0 0
232 29 6 0.1559 -0.4960077147055044 5.414049678967453 7.548324359673128 1 0 0
482 61 2 -0.169515 -0.7386151314437146 12.667422586033492 7.025341026161744 1 0 0
226 29 2 -0.169515 -0.6496909742600263 4.359069010353614 7.618561227933061 1 0 0
50 7 2 -0.169515 3.9499269934944037 8.095315547521762 7.505425531776472 0 0 0
245 31 5 -0.008385 -2.276468113614624 9.677656252817918 7.922756319109727 1 0 0
3085 386 5 -0.008385 0.6410391784479028 9.823999980945588 -6.035486092640052 0 0 1
242 31 2 -0.169515 -3.34522845018138 7.697436568786444 7.718334060826537 1 0 0
1010 127 2 -0.169515 -3.2638178507960847 -1.0389505395680814 7.9841973677541365 1 1 0
53 7 5 -0.008385 4.698986978860368 10.147127571270453 7.770048591427042 0 0 0
34 5 2 -0.169515 5.588453887143978 3.9941613646924417 7.543651195511563 0 0 0
816 102 6 0.1559 1.372534337315062 -4.124695370752356 -1.151019397641682 0 1 0
885 111 5 -0.008385 10.117148336243211 -1.42206643488388 6.366865913130724 0 1 0
283 36 3 0.512161 2.018423156569917 13.913256491936686 5.4429982190178325 0 0 0
2008 251 6 0.1559 -3.817721990411568 -1.417433012921319 11.969862501164755 1 1 0
797 100 5 -0.008385 1.7100393953177806 -3.933587652888062 3.9977195815303617 0 1 0
1151 144 6 0.19089 10.022324750419932 3.5998212652839605 8.855979585760311 0 0 0
3420 428 4 -0.488411 9.889026999573222 14.237855146854843 -3.926998623962013 0 0 1
1009 127 1 -0.38353 -2.9433453115073496 -1.5769998179655258 9.14620482515321 1 1 0
1016 127 6 0.1559 -4.213956130078854 -1.2837889641208404 7.495562313940358 1 1 0
291 37 3 0.512161 5.7049233611109145 13.873017188877052 6.577393754452743 0 0 0
821 103 5 -0.008385 5.034647941853807 0.7071841697583034 7.191197955747581 0 1 0
1071 134 6 0.19089 0.7503044787432811 7.491545646349286 7.781305795891971 0 0 0
1150 144 6 0.19089 8.969396777371223 2.13347633289914 8.312154580695116 0 0 0
1343 168 6 0.19089 2.201384150683741 11.674327284120938 7.57488348525148 0 0 0
1902 238 6 0.19089 7.3941217755317385 -3.1060238842403245 8.17504403251665 0 1 0
1087 136 6 0.19089 2.4355258319129245 3.900261818374069 8.777082068310703 0 0 0
817 103 1 -0.38353 4.099188019213528 -1.5776378071686532 8.405503546443343 0 1 0
1406 176 6 0.19089 9.035833356626805 11.35001371054263 8.229471235843041 0 0 0
1013 127 5 -0.008385 -1.8119874891155656 0.5473845423337594 7.924188186371641 1 1 0
1838 230 6 0.19089 0.811087029288218 -3.560679684942381 8.686431452025477 0 1 0
1065 134 1 -0.38353 0.3922948845139949 7.445675064715304 8.824296867766028 0 0 0
1903 238 6 0.19089 7.121898748728707 -1.397599937657861 8.676609995159078 0 1 0
1070 134 6 0.19089 -0.380815054167717 8.147725854221433 9.069172339697579 0 0 0
823 103 6 0.19089 3.6697663091244013 -2.5284547241331032 8.762795431621624 0 1 0
1086 136 6 0.19089 1.91343702955297 2.1790750810039965 8.19099640615589 0 0 0
38 5 6 0.19089 6.396372393818192 2.4423078849691966 8.733017326630499 0 0 0
230 29 6 0.19089 -0.958109327120509 2.676342533431465 8.89673367403696 1 0 0
1145 144 1 -0.38353 9.47141552924685 2.7423850838992303 9.079873245271694 0 0 0
225 29 1 -0.38353 -0.8308735055115617 3.747533440309512 8.790706354957248 1 0 0
481 61 1 -0.38353 -1.0278641897569403 12.104071237415425 8.213581819654577 1 0 0
1897 238 1 -0.38353 7.338786051415189 -2.4015732002378245 8.981751961719649 0 1 0
487 61 6 0.19089 -0.46867849915605575 11.241797815136785 8.539703686174684 1 0 0
40 5 6 0.1559 4.783151018908679 4.621286404480349 7.390091471262615 0 0 0
1839 230 6 0.19089 0.44869621609514604 -1.7414114346168434 8.665910228896728 0 1 0
289 37 1 -0.38353 6.145954276848587 12.102126383109576 8.329968818882293 0 0 0