LAMMPS data file via write_data, version 29 Sep 2021, timestep = 2000000

4096 atoms
8 atom types
3584 bonds
6 bond types
4608 angles
8 angle types
4096 dihedrals
6 dihedral types
1536 impropers
3 improper types

0 30.167756 xlo xhi
0 38.212491 ylo yhi
0 44.2460419 zlo zhi
0 0 0 xy xz yz

Masses

1 12.01
2 12.01
3 12.01
4 16
5 1.008
6 1.008
7 0.001
8 0.001

Bond Coeffs # harmonic

1 343.1 1.088
2 547.3 1.346
3 342.5 1.088
4 354.5 1.482
5 310.7 1.112
6 637.7 1.218

Angle Coeffs # harmonic

1 49.6 119.94
2 65.5 120.42
3 38.1 116.9
4 49.5 120.45
5 46.7 114.89
6 68.8 123.2
7 46.5 116.46
8 54.2 120.7

Dihedral Coeffs # charmm

1 2.175 2 180 0
2 2.175 2 180 0
3 6.65 2 180 0
4 6.65 2 180 0
5 2.175 2 180 0
6 2.175 2 180 0

Improper Coeffs # cvff

1 10.5 -1 2
2 1.1 -1 2
3 1.1 -1 2

Atoms # full

4063 508 6 0.19089 8.52727425333172 6.531190930192586 8.529364248538327 1 0 0
2388 299 4 -0.488411 1.3325794885933873 4.489838585435254 4.232198176778303 3 2 1
3658 458 2 -0.169515 11.571271297555679 9.470710190962507 7.344098144245649 -2 1 1
2392 299 6 0.1559 1.391924949519907 1.7635036106966337 3.894822106279796 3 2 1
1736 217 6 0.1559 4.265982982052379 5.2279535087880875 3.709134606202449 1 0 3
3878 485 6 0.19089 0.8769125725003685 4.38466175892534 8.842804096550555 0 0 1
1970 247 2 -0.169515 14.47383143395111 5.61098111055251 7.85247897030861 2 1 -1
161 21 1 -0.38353 8.09437733514717 9.801769384899812 3.18108039055413 -2 2 0
3823 478 6 0.19089 10.536175851969679 0.7548220150501112 8.58638264815681 3 -1 0
3267 409 3 0.512161 0.20591581882406415 2.598118980282044 6.600291283785411 -2 -3 3
2658 333 2 -0.169515 14.356650081719163 6.806376802635903 2.2262760384848983 3 1 2
3536 442 6 0.1559 3.0576520081386116 10.987148562795259 6.500321699325947 -5 0 0
4059 508 3 0.512161 9.59916168346437 8.033125319490743 5.597188244864938 1 0 0
2036 255 4 -0.488411 13.018671740891559 2.1755493971389726 9.790153108971388 3 0 -4
2387 299 3 0.512161 1.2946727369159932 3.859739659131312 3.2197880718251857 3 2 1
3265 409 1 -0.38353 0.08943544641208769 0.7403430782765033 8.075370521231147 -2 -3 3
3533 442 5 -0.008385 5.852776155425784 9.64464954213963 6.910100826257255 -5 0 0
2481 311 1 -0.38353 11.899946024100059 4.909598559510869 9.60741212457888 0 -2 1
162 21 2 -0.169515 6.9517540280310985 9.30685395258032 3.684892317336248 -2 2 0
1668 209 4 -0.488411 9.708845959759374 5.5132777397055355 4.546475036378052 0 0 3
3661 458 5 -0.008385 11.995336358494392 11.577882492811272 6.921512988637497 -2 1 1
1731 217 3 0.512161 5.286566273082432 3.3918939798207783 4.016372006919717 1 0 3
1972 247 4 -0.488411 12.400363231304745 6.368676710718614 7.055327556533963 2 1 -1
3873 485 1 -0.38353 1.7879214272284372 4.475265948950731 8.348036388356826 0 0 1
2657 333 1 -0.38353 14.590193575074505 7.243790247828929 0.9933543045573173 3 1 2
1088 136 6 0.1559 11.8499313936198 1.2101185717546528 1.48757801841476 1 0 0
3935 492 6 0.19089 14.735022256734695 10.838873929897208 3.9853388880921723 1 3 0
3821 478 5 -0.008385 9.695728283129474 3.600890535815994 6.164669598264789 3 -1 0
1670 209 6 0.19089 9.103976596898097 6.35270276315498 0.7672833503032466 0 0 3
2663 333 6 0.19089 14.320707196158727 6.600265441843579 0.13707605875383058 3 1 2
2659 333 3 0.512161 14.635804301022995 7.6436636609300095 3.421797536190525 3 1 2
43 6 3 0.512161 7.581841393730685 12.630090903162154 5.632261615599704 2 1 0
1843 231 3 0.512161 12.576116545678579 4.195275976216681 4.120816415318916 1 3 3
1971 247 3 0.512161 13.431755593954666 6.614568547561205 7.640920524567306 2 1 -1
2661 333 5 -0.008385 15.073980569088265 8.66736555589655 3.155081490447255 3 1 2
167 21 6 0.19089 9.025996022187273 9.849385191621243 3.7064025889993353 -2 2 0
3880 485 6 0.1559 3.9307459894135217 4.388168392593638 8.266042218061406 0 0 1
3876 485 4 -0.488411 4.302307015101193 3.397377221512369 10.719250956372843 0 0 1
1729 217 1 -0.38353 4.533794217879395 4.083589853065685 1.8584471887089373 1 0 3
3817 478 1 -0.38353 10.372973921248663 1.5669283368321076 7.86692477021395 3 -1 0
1848 231 6 0.1559 12.336315565981296 2.1337642229263087 5.022926123158866 1 3 3
1842 231 2 -0.169515 11.85943636140108 2.8966777816678504 4.408952875503455 1 3 3
159 20 6 0.19089 13.282116520028223 12.021241346462434 9.46913063329781 -4 -1 1
163 21 3 0.512161 5.705207801191244 9.221405116309473 2.8878325557971514 -2 2 0
2057 258 1 -0.38353 2.7096612119314436 12.029198230372414 2.404126602288425 3 3 0
165 21 5 -0.008385 5.702642621718999 9.643043774139333 1.9060054409176024 -2 2 0
1195 150 3 0.512161 3.6660000124198246 6.374433546226524 6.324578087230386 1 0 0
1193 150 1 -0.38353 6.0924066805910275 5.87866668315168 6.742116001068015 1 0 0
153 20 1 -0.38353 13.885376781484842 11.157646210012844 9.730101884297412 -4 -1 1
1198 150 6 0.19089 5.857987179219068 5.43973098477097 7.748480873608666 1 0 0
3657 458 1 -0.38353 10.812589746172831 9.831925867916729 8.393017291169446 -2 1 1
1733 217 5 -0.008385 5.657518338822236 2.472505552573735 3.450085122980951 1 0 3
3824 478 6 0.1559 8.286973227913942 1.643650076032438 8.214020963694598 3 -1 0
3035 380 3 0.512161 8.190184260325942 1.8813665418405838 0.780940346010935 2 -2 0
1841 231 1 -0.38353 10.655358806409659 2.6367695823033515 3.880453785618289 1 3 3
3529 442 1 -0.38353 3.6654346440056025 9.145401626593657 5.661269323777361 -5 0 0
2486 311 6 0.19089 12.921547410140537 4.6381978748372195 9.763841162372838 0 -2 1
3664 458 6 0.1559 11.933695660317923 8.446594399275883 7.26078361328971 -2 1 1
1734 217 6 0.19089 5.049903804828584 3.242481526291668 1.5145318068619642 1 0 3
2801 351 1 -0.38353 3.4691366533540555 11.795719564352053 10.743605343599324 -3 2 1
1194 150 2 -0.169515 5.108813493779424 6.376387573220885 5.893148672909599 1 0 0
1084 136 4 -0.488411 14.583764966000892 0.8412137090757469 1.787515056146141 1 0 0
3535 442 6 0.19089 2.666759710621874 9.07770397150146 5.180576568754979 -5 0 0
2660 333 4 -0.488411 14.352718601654423 7.250169772131699 4.532196343153157 3 1 2
2389 299 5 -0.008385 1.1023047877356111 4.470067304704742 2.2987275350631715 3 2 1
1783 223 6 0.19089 7.465855652066384 11.833515189703101 1.1598689536072382 0 1 -1
3663 458 6 0.19089 10.374837946868718 9.136816460555133 9.049666381835584 -2 1 1
268 34 4 -0.488411 1.806418589515964 9.023398795711028 1.0052187242315314 0 2 2
3170 397 2 -0.169515 5.7251940832516075 1.2522293721598523 9.612008799504451 -2 -3 -1
1199 150 6 0.19089 7.134482271176411 5.877560364555957 6.368477435969792 1 0 0
3434 430 2 -0.169515 1.8370665813854223 7.805973958619391 10.014244548058612 0 1 1
3818 478 2 -0.169515 9.181370830151328 2.0877631669093275 7.715833173394434 3 -1 0
3813 477 5 -0.008385 6.829024479829488 12.061930033762119 10.701741334710315 -1 2 -1
1344 168 6 0.1559 3.1302842665743333 1.954042344041255 0.4490665799208133 3 -3 2
1196 150 4 -0.488411 2.7399674410423995 6.70829763242037 5.585334760486478 1 0 0
2487 311 6 0.19089 11.14731009429101 4.130821812439295 9.349612084251367 0 -2 1
1658 208 2 -0.169515 6.93618821894411 5.11985872691031 10.147562222426629 -1 1 -1
3820 478 4 -0.488411 7.8260155877584525 3.7898546930859274 6.837140384833669 3 -1 0
1845 231 5 -0.008385 12.068692223874248 4.885849009069206 3.3908071818327605 1 3 3
1083 136 3 0.512161 13.860568286045051 0.43227652656607224 0.9159299420249714 1 0 0
1735 217 6 0.19089 4.078475224980188 4.842023434940065 1.2090415471923512 1 0 3
1730 217 2 -0.169515 4.671581229757989 4.39424976262442 3.1691917529110802 1 0 3
3530 442 2 -0.169515 3.8547651328827173 10.254106994116984 6.414854500250594 -5 0 0
168 21 6 0.1559 6.88528291695723 8.89962297321301 4.673059282531189 -2 2 0
1366 171 6 0.19089 14.059137988091619 11.517931511481466 0.4613106616787505 2 0 1
413 52 5 -0.008385 10.125781765794866 12.525270904407467 4.103650753124288 3 -1 2
3037 380 5 -0.008385 8.897903219661252 2.1039143373157585 1.600697019319038 2 -2 0
3819 478 3 0.512161 8.885416889923821 3.2033171743516786 6.763129417850307 3 -1 0
2035 255 3 0.512161 13.249344990248694 1.5590122123535382 8.767598611343393 3 0 -4
3176 397 6 0.1559 6.684949187716566 1.818039502507453 9.534550746094395 -2 -3 -1
154 20 2 -0.169515 14.782900688760302 10.60652647177796 8.906814820209224 -4 -1 1
1846 231 6 0.19089 10.20740734648508 3.311497114110914 3.1836106886293187 1 3 3
2385 299 1 -0.38353 1.1296887503709416 1.954783268358992 1.8059928282890219 3 2 1
3034 380 2 -0.169515 8.096723963488566 0.528905116606612 0.1972935991119448 2 -2 0
166 21 6 0.19089 8.178224321404858 10.195870342571062 2.202904345285891 -2 2 0
1200 150 6 0.1559 5.376923191940129 6.763421052028115 4.938588331618726 1 0 0
3812 477 4 -0.488411 8.465063235088685 11.047720081457523 10.098855976894649 -1 2 -1
1976 247 6 0.1559 14.384474750868698 4.658395242774347 7.350165580279006 2 1 -1
1082 136 2 -0.169515 12.38027426862734 0.5389555488664268 0.773145776738653 1 0 0
3874 485 2 -0.169515 3.0420455685554093 4.169835127495091 8.835272449321868 0 0 1
2063 258 6 0.19089 2.0278386217855138 11.510822611281654 3.1032703116230587 3 3 0
2483 311 3 0.512161 12.36420364099513 7.30660031572989 10.251756212529267 0 -2 1
3832 479 6 0.1559 5.314964815891403 6.596785973497254 1.1144257296318258 4 0 2
2484 311 4 -0.488411 12.089654003012958 8.469604890974606 10.505260468940598 0 -2 1
4058 508 2 -0.169515 9.62795076634209 7.1438145058048965 6.763342780815105 1 0 0
4057 508 1 -0.38353 8.614122361827699 7.213505595198558 7.66311654527312 1 0 0
3532 442 4 -0.488411 5.325054238118945 11.336473509343985 7.958266196847642 -5 0 0
1197 150 5 -0.008385 3.4848823462152043 6.029043354834829 7.332398978787192 1 0 0
1732 217 4 -0.488411 5.445958246477747 3.446711930840862 5.238791593240241 1 0 3
3811 477 3 0.512161 7.930062718293593 12.090358242025761 10.430188512273018 -1 2 -1
411 52 3 0.512161 10.857967255370728 11.992187406289897 3.451456843089787 3 -1 2
1664 208 6 0.1559 7.006487031730954 4.5743837121141215 9.213620728445587 -1 1 -1
160 20 6 0.1559 14.885561693687297 10.905117894916629 7.868234981968449 -4 -1 1
164 21 4 -0.488411 4.748049071295138 8.628707032134907 3.27216844912376 -2 2 0
3169 397 1 -0.38353 5.517669403075873 0.33264988542016855 10.5593945200027 -2 -3 -1
3440 430 6 0.1559 1.8038982143461382 6.763563025191302 9.746205150435413 0 1 1
2488 311 6 0.1559 10.454927169179042 6.51042919157441 9.646195271520032 0 -2 1
3822 478 6 0.19089 11.198825320485897 1.8781027952038418 7.273547924122087 3 -1 0
2034 255 2 -0.169515 13.921727320450582 0.2757355827453814 8.80182009091685 3 0 -4
3660 458 4 -0.488411 13.082454057395275 10.412205158975993 5.718651845434177 -2 1 1
3173 397 5 -0.008385 3.8182649098483616 0.8976946280407992 8.624573240486718 -2 -3 -1
2062 258 6 0.19089 3.73569389715614 11.705631844464305 2.285792008476655 3 3 0
2664 333 6 0.1559 14.002354166090985 5.79765477981975 2.4107760228097246 3 1 2
2391 299 6 0.19089 1.0300628256925568 0.9044090414016118 1.5597001371675918 3 2 1
44 6 4 -0.488411 7.098018640764582 11.825330956338297 4.799750425952864 2 1 0
3438 430 6 0.19089 1.732416729065149 9.821205239241937 9.252098796047752 0 1 1
1667 209 3 0.512161 9.596297367664379 5.782505922769265 3.37722793315462 0 0 3
1672 209 6 0.1559 7.696788425922905 4.721990026724528 2.9937336408407096 0 0 3
4060 508 4 -0.488411 10.563074205602913 8.21137269426052 4.8862168342957055 1 0 0
1916 240 4 -0.488411 0.2771412822973437 11.474086589096581 7.814985698049608 0 0 -1
410 52 2 -0.169515 11.173527293079179 12.632693372305061 2.15874299337751 3 -1 2
3662 458 6 0.19089 10.758729063349133 10.912910662368743 8.541157688235893 -2 1 1
824 103 6 0.1559 5.557349228753492 0.38781067212946924 5.694784670915126 -1 1 1
1844 231 4 -0.488411 13.716486553461282 4.478631968956256 4.543806517353719 1 3 3
48 6 6 0.1559 9.40351984275978 11.464057686602764 5.917898784739969 2 1 0
3433 430 1 -0.38353 1.7532684394349156 8.75256137328117 9.041206966020525 0 1 1
3877 485 5 -0.008385 2.2694398140800764 3.3714562011822475 10.724146238832128 0 0 1
1915 240 3 0.512161 0.4108932981802237 12.664779812881285 7.513662665164563 0 0 -1
4062 508 6 0.19089 7.835036681410702 7.99841929491157 7.5712083388659845 1 0 0
412 52 4 -0.488411 11.367356678570124 11.000784234272745 3.861363583180522 3 -1 2
3659 458 3 0.512161 12.284135573369632 10.574188756442867 6.618405152886508 -2 1 1
2482 311 2 -0.169515 11.497951582341244 6.210619121285982 9.764610745584081 0 -2 1
1665 209 1 -0.38353 8.415413120715632 5.702126318808322 1.2261938484199404 0 0 3
3439 430 6 0.19089 1.5200831737900102 8.428030158275089 8.031841078055036 0 1 1
2386 299 2 -0.169515 1.390091005039687 2.4459957366823373 3.029689345860752 3 2 1
2485 311 5 -0.008385 13.288415972859307 7.003614887019987 10.64479270706085 0 -2 1
4064 508 6 0.1559 10.445065855139609 6.484093638634811 6.881582145881785 1 0 0
416 52 6 0.1559 11.945453873109782 12.186202863714438 1.528348665457201 3 -1 2
3534 442 6 0.19089 4.373827466993185 8.319825837352989 5.493384051515937 -5 0 0
158 20 6 0.19089 13.664506703492892 10.7051629916865 10.701825490638692 -4 -1 1
1669 209 5 -0.008385 10.203084827728011 6.518834813099681 2.8530917156446063 0 0 3
3531 442 3 0.512161 5.121855997375028 10.484587254849323 7.147843115838716 -5 0 0
1666 209 2 -0.169515 8.463959976583345 5.31372628732511 2.516912152049621 0 0 3
2390 299 6 0.19089 0.8689063470563594 2.6831285421421485 0.9727619045478367 3 2 1
4061 508 5 -0.008385 8.629284085988925 8.53462648195787 5.34406458870753 1 0 0
796 100 4 -0.488411 10.43055236748717 9.788549830060752 0.7929258289778152 5 2 -1
1671 209 6 0.19089 7.61952050229428 5.32029984128708 0.6177428058325324 0 0 3
3875 485 3 0.512161 3.2366968234308313 3.579454093969266 10.172244189109058 0 0 1
3879 485 6 0.19089 1.7303225479286086 4.884474334822529 7.357358170369619 0 0 1
1973 247 5 -0.008385 13.717007108048824 7.672520456282364 7.899703040864955 2 1 -1
3831 479 6 0.19089 4.259253995717144 8.847647229102705 0.44527366790192807 4 0 2
3189 399 5 -0.008385 12.434382898466767 4.541918484056802 0.24757356796056557 2 0 2
1847 231 6 0.19089 10.14198135214099 1.6660872481588436 4.1063550281128975 1 3 3
1663 208 6 0.19089 5.215827316594154 6.210027409229214 9.52118668342364 -1 1 -1
267 34 3 0.512161 0.8449601957351516 8.591711713364298 1.554993665836138 0 2 2
3190 399 6 0.19089 14.959189805173544 4.835082711755871 0.6406407076930043 2 0 2
2806 351 6 0.19089 2.5626068882215005 11.276645988409927 10.515958472982906 -3 2 1
42 6 2 -0.169515 8.868257106955896 12.379099448034506 6.294845753932561 2 1 0
266 34 2 -0.169515 0.8202426924790461 7.257419308405015 2.1357716108933036 0 2 2
1158 145 6 0.19089 15.047767890729965 1.2780418021514852 3.877211572001002 1 -1 -1
2037 255 5 -0.008385 13.010436888000989 1.9888886198039222 7.761126684773205 3 0 -4
3171 397 3 0.512161 4.72745925212751 1.4715911454042319 8.517203090719232 -2 -3 -1
3172 397 4 -0.488411 4.83531289089049 2.3075885688025015 7.608673690463678 -2 -3 -1
1657 208 1 -0.38353 5.993391442666448 6.092363120697904 10.287660047806174 -1 1 -1
272 34 6 0.1559 1.5993018147297875 6.6056269191121695 1.7748807742278416 0 2 2
3269 409 5 -0.008385 1.2837827009098688 2.374028304892612 6.509151786326295 -2 -3 3
3270 409 6 0.19089 1.173426449805079 0.7160443316676068 8.01526209174921 -2 -3 3
3036 380 4 -0.488411 7.492969990479841 2.7318859958219006 0.3194507622349358 2 -2 0
1777 223 1 -0.38353 6.68381967413473 12.235000368390134 0.4807629424852144 0 1 -1
3216 402 6 0.1559 9.579907232163338 0.21254552629030576 10.7910625114245 2 2 1
269 34 5 -0.008385 0.04128977691976679 9.243125112639744 1.811371122479133 0 2 2
3826 479 2 -0.169515 5.289830654610532 6.972896099787158 0.08538814458483648 4 0 2
1566 196 6 0.19089 14.34662085007054 0.6465970282724652 18.66251910329512 -4 2 1
853 107 5 -0.008385 1.2485051931773696 6.921326775437072 21.353211694629426 2 -1 0
489 62 1 -0.38353 5.181908457782197 10.713990561429915 15.30913937092874 4 0 3
1806 226 6 0.19089 7.19349592941532 5.379590040180861 18.47505908337807 0 2 0
1266 159 2 -0.169515 8.859563156172864 0.15992822154114472 15.539078831301003 0 0 1
494 62 6 0.19089 4.222946760688596 10.19273816594944 15.142122576826132 4 0 3
1661 208 5 -0.008385 7.810694626361679 5.307797491823077 12.20282568779009 -1 1 -1
28 4 4 -0.488411 7.407549597726251 4.437520052046613 14.384635783343988 2 -1 -1
2093 262 5 -0.008385 7.829681502374409 12.582892965652528 15.480169437299732 2 -1 -1
1697 213 1 -0.38353 9.104686627664027 0.11026931537989203 19.500175408125987 0 1 -1
2807 351 6 0.19089 4.346459540343837 11.426760308451483 11.303666110962789 -3 2 1
1654 207 6 0.19089 12.881132828455254 11.878617123326672 16.992012411385716 -1 -2 2
1265 159 1 -0.38353 7.7649723632206955 0.1359860128499807 14.734995328451905 0 0 1
3150 394 6 0.19089 1.2485122387994796 0.38721073570903364 12.43138053109556 0 -1 -1
1944 243 6 0.1559 13.684103702434108 8.901798133093438 21.185338829693286 -2 2 -1
1939 243 3 0.512161 13.665685140363196 6.705571937052516 21.465461959927623 -2 2 -1
1020 128 4 -0.488411 14.664977208704903 10.959401981753503 13.341230318329147 1 -3 0
233 30 1 -0.38353 2.080557873524382 3.196672309664163 14.111749973990166 2 4 -2
1650 207 2 -0.169515 14.288060336677617 10.547329607855787 16.427265237939515 -1 -2 2
1269 159 5 -0.008385 9.856255736333512 1.7251315220176948 14.500377245504186 0 0 1
3872 484 6 0.1559 10.366401427359081 8.605827406336287 19.63014065312588 4 3 1
881 111 1 -0.38353 0.5655699956700997 7.804074177820775 16.8420198722979 -2 0 -1
3905 489 1 -0.38353 13.934920721036548 7.1767643398827525 15.70986323703613 -1 0 0
2529 317 1 -0.38353 3.73289244646316 0.7794764391954556 18.833616357629083 3 -2 -1
490 62 2 -0.169515 6.290194039081212 10.186635996626825 15.831704956454654 4 0 3
2589 324 5 -0.008385 0.5439372011472665 5.7733015070102 12.84735800219747 3 2 -2
1805 226 5 -0.008385 8.997430136525558 3.931055588359393 18.65882881556535 0 2 0
597 75 5 -0.008385 13.252396082426891 5.3000207696407315 11.716930711908404 0 -1 1
2920 365 6 0.1559 4.5374297120400175 8.450914260823161 17.862698340652063 1 2 2
1662 208 6 0.19089 5.923539298199632 6.665835221138717 11.228079086909379 -1 1 -1
31 4 6 0.19089 7.851532894314847 2.328721126589065 18.339784183465913 2 -1 -1
883 111 3 0.512161 0.430428135930942 6.170627632793997 18.648146338342244 -2 0 -1
675 85 3 0.512161 2.9240520562054244 5.75360405089135 15.464308021289204 -2 -1 -1
32 4 6 0.1559 8.44717489516268 4.149457610313962 16.76521775460279 2 -1 -1
2533 317 5 -0.008385 3.241180462548608 2.9738094226337877 17.353833768813807 3 -2 -1
30 4 6 0.19089 6.514359747328463 1.7684040746041256 17.063080047342865 2 -1 -1
236 30 4 -0.488411 4.615490869248288 0.860268355326886 15.071764903476225 2 4 -2
237 30 5 -0.008385 2.871903153098929 1.331773926174609 15.805107530765266 2 4 -2
2916 365 4 -0.488411 4.520089131065215 5.971253197405756 18.62568785067087 1 2 2
596 75 4 -0.488411 14.64292925504405 5.031875990243968 13.197510173946682 0 -1 1
1605 201 5 -0.008385 5.318226538759392 4.778840707987732 21.09278749389581 1 -1 0
3865 484 1 -0.38353 10.768405737460903 7.205318047675773 18.15080003846599 4 3 1
2746 344 2 -0.169515 14.663818563605172 3.980930470570392 16.046013690086358 0 1 0
29 4 5 -0.008385 6.180774415512724 2.9487232717256884 14.972514100109622 2 -1 -1
234 30 2 -0.169515 3.202319212142252 2.5050987899100408 13.95852677653484 2 4 -2
3867 484 3 0.512161 10.107757987391421 9.485962799209943 17.636477408930894 4 3 1
852 107 4 -0.488411 0.14685065519478074 8.526400692228796 20.94024713567136 2 -1 0
1808 226 6 0.1559 8.640770092385841 5.908226164072663 21.035126038613882 0 2 0
2917 365 5 -0.008385 2.9775626405336086 6.4843568798981135 19.75352282447547 1 2 2
1703 213 6 0.19089 9.591966037969014 0.7543106922048658 18.7512542615733 0 1 -1
27 4 3 0.512161 7.0497495290989995 3.6243912466537878 15.15253808311356 2 -1 -1
595 75 3 0.512161 13.490069404336461 5.040932359475074 12.818104402256987 0 -1 1
62 8 6 0.19089 10.447522664371753 10.664881833172684 13.77837469324381 -1 -3 1
25 4 1 -0.38353 7.361597636033364 2.454895037229378 17.34099818531255 2 -1 -1
1804 226 4 -0.488411 10.334845089604007 3.9001389947756295 20.173012968825518 0 2 0
887 111 6 0.19089 0.11765922468874186 8.31686654514286 15.940115369977542 -2 0 -1
3211 402 3 0.512161 10.831224764534793 1.1616196434109356 12.393039425026343 2 2 1
886 111 6 0.19089 1.5512536339520353 8.140891610980704 17.235664821334318 -2 0 -1
1268 159 4 -0.488411 10.955995315630316 1.178527054481842 16.13501752713862 0 0 1
2913 365 1 -0.38353 2.851199614571294 9.177451174839534 18.952570069073115 1 2 2
844 106 4 -0.488411 13.460668919115953 0.2651290405994048 14.420294359197873 0 1 -2
600 75 6 0.1559 12.583266530558724 4.510251540262736 14.777505581704709 0 -1 1
2710 339 6 0.19089 12.765433069170374 10.700318230544806 21.715186695776403 2 0 -1
492 62 4 -0.488411 7.150802262429662 8.202400710353734 16.934688631523812 4 0 3
1802 226 2 -0.169515 8.465853786356154 5.380575016096712 20.14064120811923 0 2 0
599 75 6 0.19089 10.304324416228576 4.549770804444702 14.027586911689498 0 -1 1
493 62 5 -0.008385 5.357119284946975 8.324019927313199 16.053179150996854 4 0 3
1655 207 6 0.19089 12.234438009139637 10.64624011102625 15.834223052325077 -1 -2 2
2532 317 4 -0.488411 1.7575658903911724 3.7303972505158716 18.598108467438735 3 -2 -1
674 85 2 -0.169515 4.339216605084572 6.134524040906116 15.210925165832027 -2 -1 -1
1562 196 2 -0.169515 12.615108090382952 1.3902964445033186 19.651881526956494 -4 2 1
60 8 4 -0.488411 8.168883399171666 7.449227770302221 13.186732939897531 -1 -3 1
3212 402 4 -0.488411 10.519237154693467 2.363274192753651 12.231990728885485 2 2 1
1940 243 4 -0.488411 12.588411045151604 6.509193521166771 20.956757651915545 -2 2 -1
1561 196 1 -0.38353 13.279703934032243 0.5557644927663729 18.81255788563742 -4 2 1
2711 339 6 0.19089 13.084323785112586 11.138512705404334 19.936382429363224 2 0 -1
3436 430 4 -0.488411 1.9524642759687483 7.4159114428192705 12.369531182517871 0 1 1
2530 317 2 -0.169515 2.8104831902948866 1.7183183757255465 19.125223204373107 3 -2 -1
2531 317 3 0.512161 2.559838958035956 2.9051990884305727 18.25153601553913 3 -2 -1
3330 417 2 -0.169515 7.937106467101126 9.538368556363666 21.584614393815617 0 1 0
235 30 3 0.512161 3.5788746971931453 1.469113994145766 14.956428529536408 2 4 -2
3870 484 6 0.19089 10.811427659703588 6.961566988302444 17.083470379077802 4 3 1
3205 401 5 -0.008385 0.510870407400195 10.70262463915408 12.3490967889223 -1 -1 2
61 8 5 -0.008385 8.189177725480281 9.528212210744886 13.014613968989035 -1 -3 1
3202 401 2 -0.169515 0.28029295813757416 10.671737601217247 14.52644806188034 -1 -1 2
240 30 6 0.1559 3.879698889898578 2.597745997513238 13.143591348986442 2 4 -2
3201 401 1 -0.38353 1.542877224538378 10.232478722887038 14.624945307016402 -1 -1 2
1801 226 1 -0.38353 7.4002598767234575 5.758297054594546 19.46582665828401 0 2 0
1563 196 3 0.512161 13.398132144455143 2.468321889355264 20.333945350931216 -4 2 1
3335 417 6 0.19089 6.4945542491706405 8.234577342955339 20.772597152596045 0 1 0
1602 201 2 -0.169515 3.817360418525348 3.1569461456422108 21.284774614205304 1 -1 0
1603 201 3 0.512161 5.183174254608519 3.700991374227849 21.198629763668613 1 -1 0
1653 207 5 -0.008385 14.82944837822426 11.808967626679275 18.1689328679868 -1 -2 2
673 85 1 -0.38353 4.666918629406634 6.674508785375828 14.041488506394971 -2 -1 -1
1320 165 6 0.1559 7.527553788616999 11.102156137078987 18.517170397266863 4 1 0
491 62 3 0.512161 6.29117852955626 8.784277603368173 16.3335585241008 4 0 3
1702 213 6 0.19089 9.348654879339621 0.3772323087804075 20.580376551927134 0 1 -1
3210 402 2 -0.169515 10.312177004139954 0.017314527646532265 11.592057392756029 2 2 1
1601 201 1 -0.38353 2.684312957095138 3.8437232228649956 21.412863317473064 1 -1 0
64 8 6 0.1559 10.61770103292811 7.605172696196006 13.786128539649711 -1 -3 1
3175 397 6 0.19089 6.30547807889918 0.0885469281208775 11.234183784991167 -2 -3 -1
238 30 6 0.19089 1.483727178651711 3.1310698357437476 14.965750416507513 2 4 -2
679 85 6 0.19089 5.718161151385851 6.853106364854701 13.810897729552678 -2 -1 -1
2752 344 6 0.1559 14.415076352126162 3.7583102311292906 15.03850515973642 0 1 0
1606 201 6 0.19089 2.6594969352087916 4.903532813906514 21.556684253174303 1 -1 0
239 30 6 0.19089 1.797437874992542 3.9125496082855125 13.332561219374798 2 4 -2
26 4 2 -0.169515 7.679372032783378 3.448297130049327 16.511353864717606 2 -1 -1
3912 489 6 0.1559 13.204643983825523 6.991160444171862 17.709913231638392 -1 0 0
598 75 6 0.19089 10.827061827770056 4.808680950894201 12.321283894590925 0 -1 1
1604 201 4 -0.488411 6.149316920071888 2.969522938354876 21.357452605252014 1 -1 0
1565 196 5 -0.008385 14.451692271339393 2.4190153818916498 20.146385069327327 -4 2 1
676 85 4 -0.488411 2.6935223697255735 5.337563970770784 16.548793750520872 -2 -1 -1
2918 365 6 0.19089 2.0897117825168987 8.942624613556728 19.695129756728804 1 2 2
594 75 2 -0.169515 12.383744235356902 4.746865447455234 13.73965178907963 0 -1 1
1807 226 6 0.19089 6.75360583937606 6.549407131138437 19.85127740045827 0 2 0
1659 208 3 0.512161 7.892324540550603 4.760548557101151 11.254412390310046 -1 1 -1
2747 344 3 0.512161 13.643904996971573 3.757936673268209 17.062939888289055 0 1 0
2536 317 6 0.1559 2.1801912472394296 1.5761974441404707 19.97638129689792 3 -2 -1
1938 243 2 -0.169515 14.281149794241216 8.075865530211768 21.561361096263276 -2 2 -1
3206 401 6 0.19089 2.213117343047728 10.127930663686177 13.777673938339165 -1 -1 2
2749 344 5 -0.008385 13.89558825523848 4.015356113933807 18.071945763330778 0 1 0
2706 339 2 -0.169515 14.472640146676904 11.899112223927915 21.330000547811125 2 0 -1
3329 417 1 -0.38353 6.677040783277165 9.133021102154421 21.37252709743728 0 1 0
1803 226 3 0.512161 9.374329111355129 4.363207953535334 19.61771194766002 0 2 0
2748 344 4 -0.488411 12.486916027605533 3.4061159270242265 16.805044894707645 0 1 0
1649 207 1 -0.38353 13.054276285373053 11.018709986602389 16.431268665079564 -1 -2 2
3244 406 4 -0.488411 0.11646349419077479 0.823874971244561 16.331769642777417 2 -2 0
677 85 5 -0.008385 2.2047669255024602 5.919353244288416 14.680323024971528 -2 -1 -1
3213 402 5 -0.008385 11.687745446330519 0.8459704281752141 13.028917031010458 2 2 1
1267 159 3 0.512161 10.047625816430275 1.0253273259109739 15.319356537473453 0 0 1
3906 489 2 -0.169515 14.037237179303446 7.293492853917335 17.044192379515962 -1 0 0
3336 417 6 0.1559 8.695394055142078 9.01573938061621 21.11522733330633 0 1 0
1660 208 4 -0.488411 8.706206465195116 3.8499049719831286 11.158842275974763 -1 1 -1
3207 401 6 0.19089 1.9708632320960837 10.136388301244258 15.586439332817564 -1 -1 2
3435 430 3 0.512161 1.9849311199929038 8.200117106281695 11.422970551579605 0 1 1
63 8 6 0.19089 11.9678430617507 9.601448069423657 14.091299364585064 -1 -3 1
2534 317 6 0.19089 4.3870195797562825 0.8894959148207008 17.951093088396863 3 -2 -1
680 85 6 0.1559 5.115448789551844 5.8432622490947095 15.938654112852639 -2 -1 -1
3866 484 2 -0.169515 10.448419526843521 8.398258182011961 18.604578360827208 4 3 1
1525 191 5 -0.008385 2.6419099191081674 11.816495085624016 21.50341016877074 0 -1 -1
3911 489 6 0.19089 13.091089589875285 6.778721822746788 15.209226836476422 -1 0 0
2919 365 6 0.19089 2.8646818894645025 10.217595709154905 18.695720100342644 1 2 2
3868 484 4 -0.488411 9.543265872496098 10.524091467607365 17.894044515721873 4 3 1
58 8 2 -0.169515 10.170275935819541 8.577329433230267 13.67379085326911 -1 -3 1
2705 339 1 -0.38353 13.352810830373555 11.26080561792446 20.992589820950784 2 0 -1
3869 484 5 -0.008385 10.38742756515574 9.301666860130032 16.592120228948374 4 3 1
57 8 1 -0.38353 10.899535084467752 9.692584050092535 13.845224762689448 -1 -3 1
678 85 6 0.19089 3.8607282012552626 6.8155308690656495 13.281028691341627 -2 -1 -1
3910 489 6 0.19089 14.84320847926132 7.303343314415703 15.156136919703252 -1 0 0
885 111 5 -0.008385 1.4447752554320157 6.52065064830697 18.81101375315429 -2 0 -1
2914 365 2 -0.169515 3.727519989740718 8.233286280082025 18.492581921401282 1 2 2
1656 207 6 0.1559 14.516651483558277 9.631580258263835 15.887509451048073 -1 -2 2
2915 365 3 0.512161 3.7493243264476743 6.840079525819348 19.084691824054712 1 2 2
1608 201 6 0.1559 3.7837715275221693 2.052909334415247 21.09338263263982 1 -1 0
1568 196 6 0.1559 11.628313201775528 1.280018524500126 19.85716339693711 -4 2 1
593 75 1 -0.38353 11.11844040094327 4.726636902518819 13.317424522362929 0 -1 1
1564 196 4 -0.488411 12.951574242106718 3.311350290652198 21.123456005167206 -4 2 1
59 8 3 0.512161 8.719515973635815 8.557081184935837 13.32262518201641 -1 -3 1
3871 484 6 0.19089 11.002845537072874 6.424041350136866 18.855101088987276 4 3 1
1607 201 6 0.19089 1.7244185226448878 3.3057514595659208 21.349318254884366 1 -1 0
496 62 6 0.1559 7.2435216002648035 10.731437047811617 15.931947891584356 4 0 3
3437 430 5 -0.008385 2.1219871105568884 9.2894444604892 11.595513709598237 0 1 1
1270 159 6 0.19089 7.675529313136487 0.7256914254376545 13.786398553036138 0 0 1
1314 165 2 -0.169515 7.098878342529851 11.769581918763745 19.313512756290983 4 1 0
851 107 3 0.512161 0.506258956492624 7.667075985284337 21.742089364925256 2 -1 0
1319 165 6 0.19089 5.061818509182353 11.50935838281521 18.709273427049 4 1 0
1316 165 4 -0.488411 9.160093918910874 12.290451940834407 20.361282381883957 4 1 0
495 62 6 0.19089 5.146858628261168 11.70323045748248 14.989884106339197 4 0 3
3334 417 6 0.19089 5.832470017990087 9.674583551309103 21.812964141141602 0 1 0
1313 165 1 -0.38353 5.761603608933712 11.924932953389272 19.44498711522767 4 1 0
1315 165 3 0.512161 7.952386622629612 12.45465801081717 20.30053116712365 4 1 0
1166 146 6 0.19089 0.029415752540061357 2.663443189871242 20.26595209825052 -2 3 -1
2712 339 6 0.1559 14.952756630054287 12.48021293853424 20.509383085427565 2 0 -1
1318 165 6 0.19089 5.316299357778697 12.532574570308073 20.24348377414027 4 1 0
1941 243 5 -0.008385 14.389147823096437 5.840996694729763 21.603521130907065 -2 2 -1
763 96 3 0.512161 11.749793482120817 1.2322009759093173 24.844121470248936 1 2 0