LAMMPS data file via write_data, version 29 Sep 2021, timestep = 3000000

4096 atoms
8 atom types
3584 bonds
6 bond types
4608 angles
8 angle types
4096 dihedrals
6 dihedral types
1536 impropers
3 improper types

0 30.167756 xlo xhi
0 38.212491 ylo yhi
0 44.2460419 zlo zhi
0 0 0 xy xz yz

Masses

1 12.01
2 12.01
3 12.01
4 16
5 1.008
6 1.008
7 0.001
8 0.001

Bond Coeffs # harmonic

1 343.1 1.088
2 547.3 1.346
3 342.5 1.088
4 354.5 1.482
5 310.7 1.112
6 637.7 1.218

Angle Coeffs # harmonic

1 49.6 119.94
2 65.5 120.42
3 38.1 116.9
4 49.5 120.45
5 46.7 114.89
6 68.8 123.2
7 46.5 116.46
8 54.2 120.7

Dihedral Coeffs # charmm

1 2.175 2 180 0
2 2.175 2 180 0
3 6.65 2 180 0
4 6.65 2 180 0
5 2.175 2 180 0
6 2.175 2 180 0

Improper Coeffs # cvff

1 10.5 -1 2
2 1.1 -1 2
3 1.1 -1 2

Atoms # full

3943 493 6 0.19089 10.387513597117287 1.2148452722780794 4.935751298042097 2 1 -1
3999 500 6 0.19089 11.294519730482833 5.4092572826617245 10.25750431658513 3 0 -4
3276 410 4 -0.488411 4.979406691916078 1.8797524306072786 1.0657650285142495 1 2 1
3723 466 3 0.512161 13.85131466815902 6.8966665309808075 6.85704226540965 -2 3 1
3090 387 2 -0.169515 12.949429372301365 8.088964987251066 0.16271662511905338 -1 -1 1
1397 175 5 -0.008385 5.567158420992128 10.397337043491016 5.553139859360505 -1 4 -1
3435 430 3 0.512161 7.800349361652515 7.22498705932781 9.736122151876609 0 1 1
1740 218 4 -0.488411 10.142770959833868 8.711912131059536 2.9993180301130593 1 -4 -1
9 2 1 -0.38353 1.9026391001912437 4.63511670561627 6.435037391553402 1 2 2
3437 430 5 -0.008385 8.66758206083148 6.533199355554214 9.779595761916708 0 1 1
3565 446 5 -0.008385 3.0883543633137642 7.662987367833175 7.616512627052029 4 0 1
2623 328 6 0.19089 10.551507202402723 12.705584789830079 1.1178643774071266 2 3 -2
3823 478 6 0.19089 14.819394747558203 1.382404398669514 8.647242768010392 3 1 1
550 69 6 0.19089 8.138295040785632 7.002562083732064 4.635662595013105 1 3 0
554 70 2 -0.169515 14.699422174137291 11.377579932406027 1.3424894705767785 2 0 3
1487 186 6 0.19089 1.4933671666763577 2.1763080729083355 6.906569797333595 1 3 0
3412 427 4 -0.488411 2.889553255134319 0.16783006509481513 3.6083563967146413 4 3 1
716 90 4 -0.488411 10.044567400209461 1.5157764964352307 10.160053298465455 -3 -1 1
3093 387 5 -0.008385 12.350396058173683 8.121899206964294 2.3073811729184817 -1 -1 1
3274 410 2 -0.169515 6.809387434764029 2.5275474503150237 2.5127278972335048 1 2 1
3079 385 6 0.19089 11.819080380992187 5.558326864069784 0.5125254908851552 3 -1 -1
2978 373 2 -0.169515 0.6905072029549097 3.5866854433893653 1.1417650723323847 -5 1 2
1741 218 5 -0.008385 9.061929583724083 10.005434571362361 3.9931281946725052 1 -4 -1
3279 410 6 0.19089 8.232072213268896 3.1280329121250325 3.9000260279523262 1 2 1
1226 154 2 -0.169515 0.7598722924819188 7.748107584504563 3.0682785542220055 -5 1 4
2502 313 6 0.19089 12.653914445014745 1.251979957841883 6.100035006092557 -1 2 -1
14 2 6 0.19089 1.635936052946968 4.8666062321532815 7.449094113619978 1 2 2
557 70 5 -0.008385 13.96818895417887 10.112722552093611 2.9356662715843718 2 0 3
3822 478 6 0.19089 14.962723064861505 2.2228698767170707 10.338502193749518 3 1 1
2943 368 6 0.19089 15.040241811291695 4.831738151542597 2.482744051740747 -8 1 1
682 86 2 -0.169515 4.35957655177342 8.950938750835341 1.78740397171471 -1 1 -1
556 70 4 -0.488411 12.412851666012681 11.06480130029419 2.0734399695641423 2 0 3
3076 385 4 -0.488411 11.741760879338806 1.5128608354546864 2.3436260308019183 3 -1 -1
551 69 6 0.19089 6.30851072455073 7.29668089773756 4.235779622991264 1 3 0
3446 431 6 0.19089 0.10557993366711353 11.102433843826544 3.0691017591576664 -2 4 3
1399 175 6 0.19089 8.011435301437787 7.9135737175230725 6.839047602414504 -1 4 -1
2499 313 3 0.512161 11.748288694260985 2.946261745650171 8.072466137930189 -1 2 -1
3722 466 2 -0.169515 14.319277030009795 6.695909793752801 5.4621102429247665 -2 3 1
1396 175 4 -0.488411 6.570535862602983 12.106704167186033 5.742847663584498 -1 4 -1
3561 446 1 -0.38353 2.6181989664960477 9.897351481838191 6.475259606243857 4 0 1
3440 430 6 0.1559 7.49497599801552 9.404593134966222 9.219756192871452 0 1 1
2196 275 4 -0.488411 0.6137537752945892 12.260968675016768 0.5653368400631962 3 -3 2
15 2 6 0.19089 2.86869123554035 4.170744103884439 6.177861138116158 1 2 2
2413 302 5 -0.008385 0.2775575105775637 12.089285951812428 9.041265664939926 -5 -1 3
3728 466 6 0.1559 14.105741696802543 5.717219046099868 5.021947162251918 -2 3 1
1738 218 2 -0.169515 11.152413282560365 10.246143876428572 4.511060038893663 1 -4 -1
546 69 2 -0.169515 7.495619385901781 6.08024827975472 2.8647304021034143 1 3 0
3433 430 1 -0.38353 9.491117136997346 8.893042492322497 9.165408716851193 0 1 1
1739 218 3 0.512161 10.03882297428122 9.597776892464545 3.7774514035659426 1 -4 -1
3724 466 4 -0.488411 13.186468530184852 6.0409495476779655 7.406274176646603 -2 3 1
3074 385 2 -0.169515 11.773334368613119 3.5700689515178228 1.2541418841781529 3 -1 -1
3094 387 6 0.19089 10.82708404663273 8.331741835785131 0.42135420912606425 -1 -1 1
637 80 5 -0.008385 4.733309385635577 4.806697026251826 7.4318552356427405 -1 3 -4
2980 373 4 -0.488411 0.476645743933689 1.9506244905573966 2.781923870003719 -5 1 2
2617 328 1 -0.38353 9.766005456969891 12.648493130984448 1.8818973751371388 2 3 -2
3504 438 6 0.1559 11.665804467199722 6.0343572367273905 5.343240134670373 0 0 4
2500 313 4 -0.488411 11.512995090914858 3.7169250736667414 8.993603219220454 -1 2 -1
486 61 6 0.19089 14.788010886457075 0.3491622810867581 2.601752097309958 -1 -3 -3
633 80 1 -0.38353 7.174450422703887 4.310814495154806 8.126017227433417 -1 3 -4
1395 175 3 0.512161 6.497951880107709 10.904892118331158 5.832590251607267 -1 4 -1
2622 328 6 0.19089 9.769301682614854 11.947347960251907 2.7290955217560247 2 3 -2
681 86 1 -0.38353 4.6320297208570445 9.851615552781922 0.848354973944315 -1 1 -1
640 80 6 0.1559 7.508889655266769 4.3781589091821385 5.960731124577392 -1 3 -4
684 86 4 -0.488411 3.772695214090136 8.638863035987193 4.13818355653578 -1 1 -1
3278 410 6 0.19089 6.545635254434511 3.8204881267704702 4.189962177744367 1 2 1
1482 186 2 -0.169515 1.4303239171784539 0.6164934176837048 8.352359111961107 1 3 0
3568 446 6 0.1559 4.402710992255638 10.54387999772213 7.425809294169625 4 0 1
3564 446 4 -0.488411 4.6832352417148355 8.088498783441047 8.732420488614162 4 0 1
3563 446 3 0.512161 3.859726637029721 8.400906260534548 7.903590923466195 4 0 1
1486 186 6 0.19089 3.084735129321554 1.6207882650828067 7.445172172904909 1 3 0
1232 154 6 0.1559 1.732696849451241 7.94806692506132 3.4131465335521542 -5 1 4
3077 385 5 -0.008385 13.041036431791337 3.064369359560997 2.802092953537851 3 -1 -1
3500 438 4 -0.488411 11.664948355996293 3.4715156063770154 4.595680772038789 0 0 4
3498 438 2 -0.169515 10.961863580567371 5.3819341948783865 5.883527397886266 0 0 4
2984 373 6 0.1559 1.7543414231437686 3.4255129240427564 1.095141086801897 -5 1 2
635 80 3 0.512161 5.418943834924932 4.864695758389658 6.557041982529559 -1 3 -4
3340 418 4 -0.488411 12.977875946214352 11.294376058898525 8.981022659731778 7 -3 -1
3678 460 6 0.19089 4.352428434750616 8.646374935057803 10.977018092408333 0 0 0
3725 466 5 -0.008385 14.177680319113675 7.844107707340835 7.351740971617553 -2 3 1
702 88 6 0.19089 0.748285948800028 8.696809891421223 8.430732391043874 -3 -1 2
3092 387 4 -0.488411 14.381956454004197 8.01789754417189 2.08637169606813 -1 -1 1
715 90 3 0.512161 10.01938916060658 0.5685082025099715 9.428338887869392 -3 -1 1
1400 175 6 0.1559 8.593504308428345 10.33735652261688 6.269505807505323 -1 4 -1
3075 385 3 0.512161 12.25068614487267 2.6024394369142163 2.1758790859141235 3 -1 -1
3497 438 1 -0.38353 10.044760677234859 5.828190333595288 6.7583946405926945 0 0 4
2498 313 2 -0.169515 13.106620751638951 2.920958967814143 7.359715321047294 -1 2 -1
1742 218 6 0.19089 9.890006143448428 11.486437386985221 5.70169725062481 1 -4 -1
3499 438 3 0.512161 10.978562758064275 3.962447370286304 5.4632025948868135 0 0 4
2501 313 5 -0.008385 11.042974291250545 2.249004641646294 7.709862939625385 -1 2 -1
552 69 6 0.1559 6.7273298453137125 5.946224474748213 2.1069739852356126 1 3 0
636 80 4 -0.488411 5.030428367761276 5.1184297630253734 5.438567992206578 -1 3 -4
560 70 6 0.1559 14.439634760229946 12.17440128033566 0.6721902517373892 2 0 3
3438 430 6 0.19089 10.20236800921556 8.16034943288848 9.42587397839899 0 1 1
16 2 6 0.1559 1.383463471982752 4.090647530411343 4.470584973442731 1 2 2
3339 418 3 0.512161 13.458395109409777 10.259627161688938 9.425176722225238 7 -3 -1
1737 218 1 -0.38353 10.931818520005503 11.165526757472318 5.4665193652263415 1 -4 -1
3679 460 6 0.19089 5.0199340583273395 10.378710733482658 10.933082545993333 0 0 0
3275 410 3 0.512161 5.4163423859893145 2.5565700690494024 2.025386521078195 1 2 1
1046 131 6 0.19089 9.319435233579826 12.063473465562101 9.16608934875839 1 -1 1
638 80 6 0.19089 6.406015115083733 4.305226012258515 8.921147366867116 -1 3 -4
3503 438 6 0.19089 10.01726449176992 6.881734066246043 6.963145310378289 0 0 4
1228 154 4 -0.488411 1.4854659591524257 7.4831330248215036 0.7885680712787763 -5 1 4
855 107 6 0.19089 3.4032499152066062 5.68424380102644 0.806533793588823 2 -1 2
3080 385 6 0.1559 11.009976877901748 3.263653181883529 0.5074680628104837 3 -1 -1
3721 466 1 -0.38353 14.942112984556385 7.655873407229307 4.813126793400129 -2 3 1
1744 218 6 0.1559 12.196401647778753 9.855321322573584 4.313237841461339 1 -4 -1
549 69 5 -0.008385 9.547689134138572 5.810570015113876 3.5230767898619675 1 3 0
700 88 4 -0.488411 1.050318646419059 5.538653983974735 10.64659460828769 -3 -1 2
701 88 5 -0.008385 2.0470818849186223 6.987323062341064 9.583116845376113 -3 -1 2
3342 418 6 0.19089 14.293462984630729 8.022586674761474 10.575943176953674 7 -3 -1
3994 500 2 -0.169515 13.304494615667727 5.230602859182196 10.76132817211059 3 0 -4
1393 175 1 -0.38353 7.25837861626249 8.648362345605934 6.571895788990141 -1 4 -1
3439 430 6 0.19089 9.97542327066368 9.844190859987133 8.8890958146299 0 1 1
3338 418 2 -0.169515 13.060742178674646 9.728704124160291 10.725644203702604 7 -3 -1
1481 186 1 -0.38353 2.042962435065961 1.511226457995607 7.532880490317274 1 3 0
2497 313 1 -0.38353 13.378576379111797 2.021056297738524 6.4093673391006885 -1 2 -1
3073 385 1 -0.38353 12.158783428580183 4.846042579540336 1.27757549062521 3 -1 -1
4000 500 6 0.1559 13.651070853447079 5.31966252088073 9.726302823330444 3 0 -4
1743 218 6 0.19089 11.695620815986892 11.568365457592632 6.099402921155528 1 -4 -1
686 86 6 0.19089 4.526697758519441 10.875724125006641 1.2020094395128151 -1 1 -1
3562 446 2 -0.169515 3.6746960555554122 9.752147846861874 7.31686943623575 4 0 1
3566 446 6 0.19089 1.859432536786634 9.135250917724894 6.364663622340796 4 0 1
634 80 2 -0.169515 6.804901954788581 4.484626043645173 6.821689043855682 -1 3 -4
1488 186 6 0.1559 0.3934741791490898 0.6388918708266184 8.464295303961418 1 3 0
2503 313 6 0.19089 14.363597476402434 1.9444502968478925 5.927280540116327 -1 2 -1
639 80 6 0.19089 8.23357971834089 4.118005934195972 8.306112714762644 -1 3 -4
683 86 3 0.512161 3.9910443227111823 9.388764321686127 3.1908739422662724 -1 1 -1
547 69 3 0.512161 8.875971198301787 5.59562294079303 2.640324994762058 1 3 0
3937 493 1 -0.38353 10.736096668898515 0.16353889672998548 4.919498311538192 2 1 -1
688 86 6 0.1559 4.4946171515280255 7.863199679730463 1.57254266526759 -1 1 -1
555 70 3 0.512161 13.639417476265402 10.815276999628525 2.1904314907037783 2 0 3
935 117 6 0.19089 2.660027401243162 3.53833987637752 10.414997798614511 1 2 1
3280 410 6 0.1559 7.528083862394282 1.9229659819479588 1.9070357440054604 1 2 1
3567 446 6 0.19089 2.531644507061636 10.823197358782723 5.884101525957593 4 0 1
431 54 6 0.19089 7.037985974726242 4.658563140348205 10.61322917174888 -1 -1 -2
3277 410 5 -0.008385 4.762023065886955 3.2073073804286962 2.6416254700097523 1 2 1
3501 438 5 -0.008385 10.214299564383268 3.3231724606536797 5.971692886412755 0 0 4
3502 438 6 0.19089 9.180533342509992 5.262679506330206 7.1182985800402525 0 0 4
10 2 2 -0.169515 1.0277047999265048 4.531216168730331 5.424862902343137 1 2 2
2504 313 6 0.1559 13.867000635705324 3.6502140447371074 7.617874442636555 -1 2 -1
3341 418 5 -0.008385 14.2007961212261 9.624417264238405 8.88188616293051 7 -3 -1
3273 410 1 -0.38353 7.213943442708231 3.164542302209653 3.6314520557960295 1 2 1
1394 175 2 -0.169515 7.576080733107644 9.95812882537689 6.285476003387469 -1 4 -1
545 69 1 -0.38353 7.290319210322985 6.775036570492488 4.023492218526547 1 3 0
2200 275 6 0.1559 2.0366728351970664 12.205376814924664 2.659827282886548 3 -3 2
1398 175 6 0.19089 6.226113048771565 8.271735957682784 6.5124957322388095 -1 4 -1
548 69 4 -0.488411 9.284606359217745 4.99111032082132 1.6320318528915334 1 3 0
22 3 6 0.19089 9.48896007456549 0.47992939211041186 0.7375769082447713 3 -2 2
1227 154 3 0.512161 0.5575330039464887 7.51917256210349 1.6004741240939413 -5 1 4
699 88 3 0.512161 1.042872360852862 6.515379051301095 9.9005884037106 -3 -1 2
3091 387 3 0.512161 13.256475945306427 8.06184023258173 1.6214689877844453 -1 -1 1
3436 430 4 -0.488411 6.659185719710989 6.882897987767455 9.97068720591756 0 1 1
3078 385 6 0.19089 12.763677316418079 5.312747111168839 2.0566105164187087 3 -1 -1
717 90 5 -0.008385 10.89804248441139 0.33155591095119824 8.737647049073985 -3 -1 1
2977 373 1 -0.38353 0.06453953348743009 4.653076530458191 0.49981912293889263 -5 1 2
3434 430 2 -0.169515 8.193859584910149 8.61716966978843 9.35345122286108 0 1 1
685 86 5 -0.008385 3.9862964715730596 10.498239000100524 3.335723910018646 -1 1 -1
3382 423 6 0.19089 0.007994633731464126 2.3189508933214444 10.889529515022298 1 1 1
2408 301 6 0.1559 1.2731933731901681 9.656409498164233 17.885711585540026 1 -1 1
3558 445 6 0.19089 13.96040837677274 1.0760443145611935 19.219039439171155 1 5 2
658 83 2 -0.169515 12.466824316722809 6.053006146144298 15.216328227345402 2 3 -3
2386 299 2 -0.169515 2.6811626282156307 12.713050983733119 15.405854271640115 4 2 -1
256 32 6 0.1559 1.1829144440720185 4.672844870290443 17.97245393647382 0 3 3
2291 287 3 0.512161 12.660136698624004 12.73473953383152 18.85482781455814 1 1 0
2290 287 2 -0.169515 13.071029201591216 11.76776260549969 17.792753405376132 1 1 0
930 117 2 -0.169515 4.051184912824094 4.221313476970149 11.90069410893252 1 2 1
932 117 4 -0.488411 5.2085549657004035 5.04704923349156 13.761745301369897 1 2 1
3555 445 3 0.512161 11.47763279344326 1.092851656779145 20.216281995549668 1 5 2
429 54 5 -0.008385 8.781054880749764 5.706165624306241 13.87418487029687 -1 -1 -2
426 54 2 -0.169515 8.264909227005322 4.1168715536084655 12.339512137558021 -1 -1 -2
511 64 6 0.19089 0.10618970336573863 10.437798750818894 21.390215451176367 4 -2 -1
1529 192 1 -0.38353 13.621972844612827 7.956340926830939 19.45495940224262 1 -1 -1
2407 301 6 0.19089 3.800864052733807 9.474429279941841 18.326767727538957 1 -1 1
800 100 6 0.1559 10.86192143351755 9.028512692104705 13.590574860704088 6 2 -2
257 33 1 -0.38353 9.619511985437232 0.06136963653679931 14.268454323131305 4 -1 -1
1505 189 1 -0.38353 13.79699165019924 3.9154925408772514 18.603602232846043 -1 1 1
3300 413 4 -0.488411 9.850699370596002 9.1346151430263 17.745353175929097 2 1 -1
1610 202 2 -0.169515 5.404355955585053 3.455330923323532 21.07335371818112 2 1 0
798 100 6 0.19089 8.887442481128325 11.079000219343756 14.579097541740929 6 2 -2
1244 156 4 -0.488411 3.8939253749036076 6.802367434009925 16.290060425009624 5 1 -1
2392 299 6 0.1559 3.014463190135755 12.568824929993387 16.4491084164061 4 2 -1
3209 402 1 -0.38353 10.161278413788374 6.204187299509508 18.64137631559215 3 2 1
657 83 1 -0.38353 11.934647804886172 6.9402501404277235 14.379879084364482 2 3 -3
652 82 4 -0.488411 6.550882796872033 8.663025995462258 12.506722875538909 1 -1 0
3141 393 5 -0.008385 3.503535177571781 1.9376015175210348 21.424715217554873 0 0 -1
1242 156 2 -0.169515 5.350567046134127 7.941190325688029 17.68712683208814 5 1 -1
3674 460 2 -0.169515 3.029315615971202 10.31679393675178 11.402990053777003 0 0 0
1246 156 6 0.19089 6.220314944754395 6.9658865093058555 19.3349496412595 5 1 -1
3676 460 4 -0.488411 0.8997891336918452 10.066269674094666 12.259336954488749 0 0 0
1508 189 4 -0.488411 12.151219987026742 5.062752004056713 21.602438900374864 -1 1 1
929 117 1 -0.38353 2.8559216116287667 3.641191763361734 11.484247038704611 1 2 1
428 54 4 -0.488411 9.490934581658056 3.924236608515633 14.38166581127088 -1 -1 -2
1534 192 6 0.19089 13.064734111535397 8.374255821225757 18.600094153020923 1 -1 -1
108 14 4 -0.488411 6.2876722639019995 10.486541696033614 20.774306560205527 -4 1 -1
1111 139 6 0.19089 12.934073827179473 11.753468449022309 21.821212573376755 1 -3 -2
650 82 2 -0.169515 5.617391635493557 10.618603837334897 13.599967835673747 1 -1 0
3556 445 4 -0.488411 10.325261399841938 0.9192921453064765 20.57818861820534 1 5 2
3213 402 5 -0.008385 7.8766167311247415 5.924584117992883 17.58745199655101 3 2 1
1609 202 1 -0.38353 4.234403088821255 3.942632178141058 20.627709134717925 2 1 0
255 32 6 0.19089 1.3369638288467507 4.941569012629266 15.694680326914238 0 3 3
1243 156 3 0.512161 4.523796535762214 6.765539128940678 17.325608904924753 5 1 -1
2295 287 6 0.19089 12.482603638317148 10.130719394396266 16.63489986604416 1 1 0
3211 402 3 0.512161 8.47066186414244 5.060273456529554 17.257708109747945 3 2 1
3741 468 5 -0.008385 0.5015433160248103 6.987146665237936 12.681535977382412 -2 -1 0
2289 287 1 -0.38353 12.251817491925998 10.779493072292539 17.44093903590324 1 1 0
510 64 6 0.19089 0.09453036725075581 8.57528263675734 21.68765000741803 4 -2 -1
506 64 2 -0.169515 1.8964950758976178 9.628492959430927 22.097242628770257 4 -2 -1
3212 402 4 -0.488411 8.096128171322109 4.248533542804136 16.413776721415232 3 2 1
259 33 3 0.512161 11.02222553308329 1.766160269153543 15.222789596009271 4 -1 -1
249 32 1 -0.38353 1.628531599933828 4.03302072805097 16.039147026577755 0 3 3
588 74 4 -0.488411 1.3711836841960816 4.673657302240268 21.91060532768748 1 -1 2
427 54 3 0.512161 8.889174232448353 4.615502330710789 13.577529025845879 -1 -1 -2
2296 287 6 0.1559 14.023490900393831 11.879712659317212 17.316465049064547 1 1 0
660 83 4 -0.488411 14.36812472142324 5.693834948533741 16.724425084547974 2 3 -3
3926 491 6 0.19089 6.648144146332089 0.8959851314956947 13.473134054898308 -1 2 1
3299 413 3 0.512161 8.963919086495642 9.872754979941684 18.168470070000716 2 1 -1
3742 468 6 0.19089 0.7350103353064963 8.556603385501422 14.518984574104845 -2 -1 0
1509 189 5 -0.008385 11.458976072286177 4.108942614495894 20.027775782372835 -1 1 1
2293 287 5 -0.008385 11.598587339583604 12.585055208180568 19.14889611311114 1 1 0
3948 494 4 -0.488411 14.511312263749069 3.008625139139845 15.411289116084985 2 0 2
261 33 5 -0.008385 10.253522124831985 1.7740272950428824 16.029864079531126 4 -1 -1
3925 491 5 -0.008385 5.807689616019423 0.7990309501100482 11.305003839454434 -1 2 1
934 117 6 0.19089 2.130058579225191 3.3449005083644354 12.175466457016407 1 2 1
2401 301 1 -0.38353 3.1751444380412965 10.358712597541947 18.57158352991139 1 -1 1
3644 456 4 -0.488411 3.6648791804615954 0.9297092808303407 12.334117521488402 0 -3 -2
3949 494 5 -0.008385 13.847522883211678 1.1498976221190425 14.992943841291876 2 0 2
264 33 6 0.1559 11.369441256086562 0.8968862173921376 13.304831027745998 4 -1 -1
3215 402 6 0.19089 11.14026990905719 6.382444085817247 19.057141599600122 3 2 1
3139 393 3 0.512161 3.0645282646093177 1.0300538655356992 21.922659622307876 0 0 -1
1614 202 6 0.19089 4.135321845210431 4.392882122700802 19.647054962647477 2 1 0
794 100 2 -0.169515 10.570523184140491 9.943346472186134 13.977474352707555 6 2 -2
651 82 3 0.512161 6.1735607494890745 9.249957997357132 13.507209212998793 1 -1 0
3214 402 6 0.19089 9.382070638623976 6.864493388904854 18.908391196083457 3 2 1
3210 402 2 -0.169515 9.841507989542356 5.191910819445734 17.784499097968638 3 2 1
3298 413 2 -0.169515 8.398094403192763 11.060252554772854 17.527090172380404 2 1 -1
252 32 4 -0.488411 1.7452238607744022 2.4786902917709965 19.341509579447262 0 3 3
653 82 5 -0.008385 6.310180283882639 8.79226633679521 14.557215631091577 1 -1 0
655 82 6 0.19089 5.099288251541773 12.307856240817397 14.908358678315533 1 -1 0
432 54 6 0.1559 8.358445620138326 3.0906553439720326 12.112924893580256 -1 -1 -2
1572 197 4 -0.488411 0.5573973725715676 7.510093199338631 18.576589354490068 1 1 3
793 100 1 -0.38353 9.266447948685418 10.11906922167604 14.23900219497762 6 2 -2
662 83 6 0.19089 12.318748114470793 7.979903662898123 14.219626483600388 2 3 -3
2769 347 1 -0.38353 5.26811888578128 2.1648974559319347 16.56228803105463 0 1 -3
3302 413 6 0.19089 7.547703852106685 11.753468479670813 19.295505761356512 2 1 -1
1613 202 5 -0.008385 6.385642850522845 4.116073587374636 19.17470683963467 2 1 0
1615 202 6 0.19089 3.325128136936512 3.8528507921459014 21.218221118158155 2 1 0
2406 301 6 0.19089 3.6984214666806525 11.11783490992211 19.193487760049706 1 -1 1
1241 156 1 -0.38353 6.125912114284412 7.891781089526416 18.754930802143 5 1 -1
933 117 5 -0.008385 3.465852192103043 4.075948224229233 14.000596168846087 1 2 1
1510 189 6 0.19089 13.003906305157964 3.3628251177356363 18.211338111717883 -1 1 1
1506 189 2 -0.169515 13.64380303751235 4.569356355357286 19.743640748980177 -1 1 1
1245 156 5 -0.008385 4.6403925034948825 5.8945748317147055 17.9473456269374 5 1 -1
3974 497 6 0.19089 14.7794933266883 0.5527341703460606 21.180601734959456 -8 1 0
661 83 5 -0.008385 13.877809852229628 7.475389774138886 16.03124843817791 2 3 -3
260 33 4 -0.488411 11.95267011194667 2.5634001099334047 15.166950072489485 4 -1 -1
656 82 6 0.1559 5.483568335965556 11.093792840814631 12.631352421753672 1 -1 0
3557 445 5 -0.008385 12.341031587048748 1.2050351939351374 20.89553834411101 1 5 2
649 82 1 -0.38353 5.389902477765066 11.232886152530797 14.806643717720837 1 -1 0
796 100 4 -0.488411 12.756453813365562 10.842959235390731 13.946242186014308 6 2 -2
654 82 6 0.19089 5.477383680731521 10.655084496702846 15.693592519508892 1 -1 0
797 100 5 -0.008385 11.187840562759666 12.047175340992089 14.249065862137755 6 2 -2
3995 500 3 0.512161 14.288308164033651 5.062395945219759 11.878500340925438 3 0 -4
659 83 3 0.512161 13.651916168670297 6.418604528123614 16.034210740115736 2 3 -3
3216 402 6 0.1559 10.61409064548568 4.487744057421433 17.49831975671067 3 2 1
2403 301 3 0.512161 1.0974052074056717 11.605068755704659 18.873579023948132 1 -1 1
2387 299 3 0.512161 1.9109618764406826 11.603258773426985 14.75472320290653 4 2 -1
251 32 3 0.512161 1.8032403676425715 2.5603216282507293 18.121631063837793 0 3 3
1507 189 3 0.512161 12.35472676861025 4.520129650128766 20.53839733222699 -1 1 1
2389 299 5 -0.008385 1.6299951395367636 11.799886869583515 13.681796034994118 4 2 -1
3343 418 6 0.19089 13.292972538238029 8.108586658701014 12.11615674007483 7 -3 -1
887 111 6 0.19089 6.94826447063267 12.07564212473102 11.202206803973079 -2 2 0
2775 347 6 0.19089 5.243524856452791 3.094196703038664 17.14522198910419 0 1 -3
254 32 6 0.19089 2.0087054221813325 3.324948311116733 15.342160508075153 0 3 3
3998 500 6 0.19089 11.780239713246013 5.225600095414355 12.149569149958033 3 0 -4
2294 287 6 0.19089 11.302831170990489 10.682532988865729 18.018173647586444 1 1 0
3297 413 1 -0.38353 7.667078896974062 11.925953045174415 18.19470334442552 2 1 -1
2774 347 6 0.19089 5.58787983132105 2.263258116513983 15.529050765508435 0 1 -3
3997 500 5 -0.008385 13.945898100632192 5.0746226348584305 12.953736199036422 3 0 -4
2776 347 6 0.1559 4.661998753788956 0.843637552590395 18.11733522227894 0 1 -3
430 54 6 0.19089 7.4698260613912995 6.0174890211982675 11.913544794704901 -1 -1 -2
1616 202 6 0.1559 5.558489101743412 2.993243961419301 22.060293940332173 2 1 0
258 33 2 -0.169515 10.689298281490096 0.8268723737898851 14.157870404106484 4 -1 -1
1535 192 6 0.19089 14.497780734896136 7.385210566179074 19.250656773248064 1 -1 -1
2402 301 2 -0.169515 1.843328526736397 10.415931971911236 18.37593550795288 1 -1 1
1512 189 6 0.1559 14.423779066415708 5.253159383914163 20.057750896043267 -1 1 1
1511 189 6 0.19089 14.710170715020382 3.926453373818898 18.034203586071996 -1 1 1
3301 413 5 -0.008385 8.522873453170474 9.723662567171171 19.13456606631088 2 1 -1
1533 192 5 -0.008385 11.469809991350264 9.398991936603394 20.34589554544437 1 -1 -1
250 32 2 -0.169515 1.4872378520468195 3.830629033748878 17.353245003292034 0 3 3
795 100 3 0.512161 11.576749015631163 11.029880986357664 14.08737505844541 6 2 -2
1530 192 2 -0.169515 13.19543446548174 8.180742914681941 20.733476734588933 1 -1 -1
3560 445 6 0.1559 11.046560864885853 0.9621259106072431 17.99901545861516 1 5 2
505 64 1 -0.38353 0.6368114900632089 9.54013683504028 21.710574101137414 4 -2 -1
1248 156 6 0.1559 5.343392561594248 8.790066376689113 17.031229839586324 5 1 -1
799 100 6 0.19089 8.529531618059059 9.396986502763797 14.136506406137 6 2 -2
425 54 1 -0.38353 7.5790414143043146 4.9682959127340105 11.557532933590378 -1 -1 -2
3554 445 2 -0.169515 11.869343888976038 1.0781966927466917 18.7711161980141 1 5 2
1247 156 6 0.19089 6.770237435177693 8.696951010731182 19.05799707798724 5 1 -1
663 83 6 0.19089 11.117334465473494 6.644922212435698 13.760357100568934 2 3 -3
2770 347 2 -0.169515 4.972423533870342 0.9794500641989906 17.100564297596215 0 1 -3
2180 273 4 -0.488411 7.91798275349138 0.9496527116594065 17.912973272941752 -1 -1 -2
3677 460 5 -0.008385 1.8824236619994208 8.419053841001356 11.695021905910167 0 0 0
3947 494 3 0.512161 14.68141348586406 1.9520422424580528 14.874414701867327 2 0 2
931 117 3 0.512161 4.222305718685126 4.468334084195678 13.330894595060313 1 2 1
664 83 6 0.1559 12.050323259541665 5.042707073578511 15.273961837969017 2 3 -3
2388 299 4 -0.488411 1.5698612619244883 10.609450849713324 15.412067830545784 4 2 -1
3304 413 6 0.1559 8.68304949446718 11.16216261142454 16.479857055062816 2 1 -1
1536 192 6 0.1559 13.729841469386841 7.676158102220116 21.529348811809356 1 -1 -1
1612 202 4 -0.488411 7.736041230762559 3.327306751203276 20.45209030528652 2 1 0
253 32 5 -0.008385 2.1589280078934245 1.6768736279677179 17.49662671020942 0 3 3
1611 202 3 0.512161 6.623728447852365 3.634669875458477 20.19784252568398 2 1 0
1531 192 3 0.512161 12.038811968594972 9.043004058161529 21.143702028205755 1 -1 -1
320 40 6 0.1559 6.989787034010555 0.3908132626689806 21.22600561727215 0 1 -1
3675 460 3 0.512161 1.8670449185174913 9.499807611451235 11.840172680094186 0 0 0
2405 301 5 -0.008385 1.6336722363445342 12.367752016355439 19.47481867950955 1 -1 1
3648 456 6 0.1559 2.4570190032966517 0.8779904548124685 14.649741007912315 0 -3 -2
3980 498 4 -0.488411 9.169795701205269 11.715885250416477 22.053438546081647 -3 4 -4
512 64 6 0.1559 2.369744315856581 10.584361266702958 22.095291619586437 4 -2 -1
3680 460 6 0.1559 2.9713334641500264 11.377911351942437 11.354854284494813 0 0 0
3553 445 1 -0.38353 13.179688147218336 0.9940935467673871 18.472234189149244 1 5 2
3142 393 6 0.19089 4.785389704766928 0.5308565538104087 20.018111216845362 0 0 -1
936 117 6 0.1559 4.812850801754432 4.601731947738193 11.283360115097235 1 2 1
3559 445 6 0.19089 13.466446610620794 0.9055045008460972 17.466917226463746 1 5 2
107 14 3 0.512161 6.0173438462575195 10.785883732106974 21.90847866517801 -4 1 -1
3344 418 6 0.1559 12.243943876747808 10.28089146987743 11.212504892563603 7 -3 -1
3337 418 1 -0.38353 13.559041660011578 8.551412250775895 11.163034165515471 7 -3 -1
3673 460 1 -0.38353 4.181162953665191 9.729984363998062 11.127767207562252 0 0 0
262 33 6 0.19089 8.974158470294384 0.13981553695225174 15.129047870711153 4 -1 -1
3993 500 1 -0.38353 12.039117490687948 5.368001999180872 11.100886138173967 3 0 -4
3472 434 6 0.1559 7.460980693163724 0.5367428794969257 30.15874738398872 3 -1 1
3318 415 6 0.19089 5.937642560510247 3.9581277680128992 24.914193872320926 0 0 1
2513 315 1 -0.38353 7.86034423297492 3.1697614880185636 28.380916961069424 -3 3 1
3979 498 3 0.512161 9.973555682947888 12.525249863910359 22.464229018084318 -3 4 -4
41 6 1 -0.38353 5.355468286489283 6.723490751309058 30.594471098041492 1 1 -2
232 29 6 0.1559 1.8156689687971175 11.38677528590699 26.82677651917604 0 -3 2
1104 138 6 0.1559 13.01038718831483 0.3507147742856882 26.423894329730633 -1 1 1
43 6 3 0.512161 3.0709818402338303 7.6439182920596345 30.243233475631364 1 1 -2
1184 148 6 0.1559 10.915021934868589 4.268130886189523 23.819992528422073 -1 -2 -2
1062 133 6 0.19089 6.386425891756961 0.8510520600831997 25.45678728641734 6 1 -1
1177 148 1 -0.38353 10.789446199372536 3.80136929065049 25.87524268950395 -1 -2 -2
613 77 5 -0.008385 7.8006393789189366 9.354205587363111 28.791189469825266 1 1 0
3352 419 6 0.1559 11.364129744567784 4.5395971771631185 29.521671790491208 4 2 0
110 14 6 0.19089 5.188710195328353 11.530719822269708 24.30104155277492 -4 1 -1
2028 254 4 -0.488411 13.83997020531561 6.928695187882946 30.487438994222195 2 1 -4
1068 134 4 -0.488411 13.74557010007901 9.829340716013524 32.77933245983097 -4 3 1
1180 148 4 -0.488411 13.279087478978475 3.1695595211443663 23.300962251939143 -1 -2 -2
1588 199 4 -0.488411 11.931438735858494 6.63353739378979 23.91747027281454 -2 2 1
592 74 6 0.1559 0.6992764560020543 5.50815318466777 24.27959010152983 1 -1 2
1953 245 1 -0.38353 7.674243943383872 8.45476259018608 25.64995992958733 5 4 0
612 77 4 -0.488411 5.938282979353363 10.141079313357432 28.896844867940448 1 1 0
2578 323 2 -0.169515 1.9820827853569252 8.85506747153126 25.85079169826371 0 2 1
1112 139 6 0.1559 14.705065103575992 10.20502950470904 22.713613872066272 1 -3 -2
3011 377 3 0.512161 0.512549079318326 3.965203149581306 32.25090973103596 1 -3 -1
1070 134 6 0.19089 14.813069163419927 12.556676412919774 30.198152981291685 -4 3 1
586 74 2 -0.169515 0.3298786383253192 4.497602687281903 23.993729829035203 1 -1 2
4021 503 5 -0.008385 14.7275970317864 7.829122779292221 28.288756184430923 4 3 2
909 114 5 -0.008385 13.428097519401886 11.147175669132642 26.61657540954197 -1 3 -1
2579 323 3 0.512161 1.4825953746023945 9.921667862076875 25.028282049034086 0 2 1