LAMMPS data file via write_data, version 29 Sep 2021, timestep = 1500000

4096 atoms
8 atom types
3584 bonds
6 bond types
4608 angles
8 angle types
4096 dihedrals
6 dihedral types
1536 impropers
3 improper types

0 29.633646300000002 xlo xhi
0 37.69801 ylo yhi
0 43.600592945 zlo zhi
-0.00502955625499979 -0.030850502120259193 0.017347407862189357 xy xz yz

Masses

1 12.01
2 12.01
3 12.01
4 16
5 1.008
6 1.008
7 0.001
8 0.001

Bond Coeffs # harmonic

1 343.1 1.088
2 547.3 1.346
3 342.5 1.088
4 354.5 1.482
5 310.7 1.112
6 637.7 1.218

Angle Coeffs # harmonic

1 49.6 119.94
2 65.5 120.42
3 38.1 116.9
4 49.5 120.45
5 46.7 114.89
6 68.8 123.2
7 46.5 116.46
8 54.2 120.7

Dihedral Coeffs # charmm

1 2.175 2 180 0
2 2.175 2 180 0
3 6.65 2 180 0
4 6.65 2 180 0
5 2.175 2 180 0
6 2.175 2 180 0

Improper Coeffs # cvff

1 10.5 -1 2
2 1.1 -1 2
3 1.1 -1 2

Atoms # full

1051 132 3 0.512161 4.396791595135452 7.306544806955147 7.1529943962849565 3 -2 1
968 121 6 0.1559 5.138616650577413 1.5868949345319228 0.255742643906728 -1 4 2
1053 132 5 -0.008385 5.069190755798253 8.194816044738529 7.128070509393568 3 -2 1
1055 132 6 0.19089 6.937266409221456 4.929773372664664 7.227862692810008 3 -2 1
630 79 6 0.19089 2.6949858922406933 2.9590785348782402 2.6759904500360667 3 1 -1
189 24 5 -0.008385 8.504604785827992 3.0670165959771505 8.407146464169276 0 1 -2
3131 392 3 0.512161 7.279232032245383 6.110995518516112 1.2191138879538344 -3 1 0
1531 192 3 0.512161 10.185556595029992 8.296194774226635 2.245586194912585 2 0 -1
2140 268 4 -0.488411 12.797245825995649 11.375991202792678 8.725375001049311 1 -2 0
1484 186 4 -0.488411 4.206908553822382 12.253253872725113 3.307445170317007 2 2 -2
2732 342 4 -0.488411 14.03465997549764 5.908247818518973 3.3678429378675374 1 1 2
722 91 2 -0.169515 9.731350098180203 3.8246729321161776 2.4412503882885184 0 0 -4
3735 467 6 0.19089 4.582859621217217 2.424453024919176 7.937329988984015 1 0 2
625 79 1 -0.38353 1.8188868025816953 3.104826961195765 2.005446006073488 3 1 -1
2729 342 1 -0.38353 12.664007836045414 4.403453738231206 6.369550346697292 1 1 2
1761 221 1 -0.38353 0.05924834793986553 5.540112805626495 5.372997178166178 1 1 1
3135 392 6 0.19089 5.890678762088618 6.5457856605085 4.21879353684866 -3 1 0
706 89 2 -0.169515 8.38735577325575 8.639857526720151 6.129384775622044 1 2 1
191 24 6 0.19089 11.92213406653815 1.9565352596974022 7.1929119148939 0 1 -2
726 91 6 0.19089 10.48939946806302 2.139534247141727 3.456285888207259 0 0 -4
3748 469 4 -0.488411 1.5845814993256337 9.320260447745966 7.841283390028844 3 0 1
3095 387 6 0.19089 5.5529804135872185 2.009691231514415 9.409063694520409 0 -1 0
1056 132 6 0.1559 4.438323942561705 5.153824097891364 7.321179691148433 3 -2 1
3730 467 2 -0.169515 4.092007872629959 1.5135478449086461 6.202381619905049 1 0 2
583 73 6 0.19089 13.768895374328942 1.0807093320366494 7.8620165676060845 -2 -4 3
727 91 6 0.19089 10.425538073492085 3.582843151188523 4.515561890462126 0 0 -4
966 121 6 0.19089 8.13364588607791 1.3359369961958405 0.8342243695774492 -1 4 2
546 69 2 -0.169515 12.768721125893565 0.6156501943237136 3.9482120842968933 -3 2 0
1529 192 1 -0.38353 11.978428540859369 7.0091561499163015 1.1268601852296647 2 0 -1
3510 439 6 0.19089 14.004581413550529 8.392050702532805 8.354482750772398 1 0 1
1005 126 5 -0.008385 7.525625945056756 8.48242939741913 10.173308957289134 -1 -4 0
187 24 3 0.512161 8.49221301115674 2.6238117231651827 7.392024295458069 0 1 -2
1082 136 2 -0.169515 1.908899555581257 1.7444635418795003 10.517627537077422 0 -1 0
185 24 1 -0.38353 10.984958206505425 2.300097201719223 7.548877549839548 0 1 -2
2141 268 5 -0.008385 13.135056990790934 9.680891168640644 9.747107181119889 1 -2 0
3512 439 6 0.1559 14.35273985556789 7.997838312333696 5.340571498616913 1 0 1
721 91 1 -0.38353 10.218313662637202 3.175810289087554 3.5340276528958445 0 0 -4
2736 342 6 0.1559 12.129732331574624 6.109167220979141 5.176091762904979 1 1 2
1054 132 6 0.19089 7.05486830029612 6.774527518928636 7.150935065809588 3 -2 1
1052 132 4 -0.488411 3.198436858209678 7.446621533949859 7.062630270694368 3 -2 1
705 89 1 -0.38353 7.969481035068057 9.508547927424345 7.07377700214352 1 2 1
3096 387 6 0.1559 6.997605280593561 0.00419254130111957 9.709741777684858 0 -1 0
3094 387 6 0.19089 6.745940668073268 3.1233655958932287 10.28646545591562 0 -1 0
1273 160 1 -0.38353 0.073430407128239 10.55788928065136 4.952806396967545 0 0 -1
1482 186 2 -0.169515 4.089623782489536 9.90567400913705 3.5974609536674 2 2 -2
962 121 2 -0.169515 6.081097261907393 1.8182655406063508 0.6499747763855499 -1 4 2
1003 126 3 0.512161 6.960934831511781 7.550323285015508 9.97283663894672 -1 -4 0
886 111 6 0.19089 4.681947841386148 10.924079549384167 0.6671429768193557 0 0 1
550 69 6 0.19089 13.882314680072689 1.9263368230081876 2.7374641633377137 -3 2 0
964 121 4 -0.488411 5.22025333669196 3.661770206258142 1.8225620192396046 -1 4 2
1249 157 1 -0.38353 9.996057743653422 11.419486666887618 4.887148626913413 0 0 1
2103 263 6 0.19089 2.1040860183539882 6.1465406776432765 0.5581934016210948 2 -1 1
2731 342 3 0.512161 13.829260798515607 5.103459194106627 4.290739119747501 1 1 2
1711 214 6 0.19089 12.991536621340542 10.90446188098535 4.610500615532347 2 3 -1
2098 263 2 -0.169515 1.3714187025009577 8.092779848125753 0.34879420654685234 2 -1 1
712 89 6 0.1559 8.142906311927675 8.864640204924271 5.06067454954073 1 2 1
3132 392 4 -0.488411 8.14563196104991 5.607353775479067 0.5894009609461554 -3 1 0
631 79 6 0.19089 1.1056289599312337 3.805131653921547 2.3849246472713044 3 1 -1
411 52 3 0.512161 7.65719788755712 11.61262561844547 2.4660535910775074 1 0 1
2100 263 4 -0.488411 0.684699050365882 10.314833162995518 0.2819011657956653 2 -1 1
1007 126 6 0.19089 9.724817991858128 5.428535474048154 9.922041207050587 -1 -4 0
632 79 6 0.1559 0.7459204381653538 2.476918205345408 0.37416036868888 3 1 -1
725 91 5 -0.008385 10.158604797137668 2.0186765103795827 1.2479201710785432 0 0 -4
1088 136 6 0.1559 2.694804948401699 2.5038578743342432 10.592409560435268 0 -1 0
1004 126 4 -0.488411 5.735238536399752 7.513216790259077 10.099193966067679 -1 -4 0
1763 221 3 0.512161 2.49170704325877 4.93757430652937 5.272755477152644 1 1 1
3729 467 1 -0.38353 4.407859565287814 1.4561111045020119 7.487886944754273 1 0 2
547 69 3 0.512161 11.84856076686829 0.2337119052173606 2.8586920409848084 -3 2 0
627 79 3 0.512161 2.6468309515879977 1.4380647036316347 0.3826262830159321 3 1 -1
3736 467 6 0.1559 4.019640316783565 2.412139054845675 5.593656932727823 1 0 2
3089 387 1 -0.38353 6.526557312138152 2.1217363398288307 9.871406782440395 0 -1 0
774 97 6 0.19089 0.7922269873255635 0.7192592190508752 7.10422774384964 -1 -2 0
1002 126 2 -0.169515 7.797452062624502 6.347793457813402 9.96175607717622 -1 -4 0
3747 469 3 0.512161 1.9966255774064636 9.267941792988111 8.977147344629188 3 0 1
724 91 4 -0.488411 9.403219493524615 3.4876208913232625 0.0751444429367907 0 0 -4
1087 136 6 0.19089 1.2516927066270347 2.178042739936837 8.489134640107086 0 -1 0
723 91 3 0.512161 9.752459457429303 3.0688407953983505 1.157089031836862 0 0 -4
1707 214 3 0.512161 14.01170513509141 10.025915094304665 1.4068024938874668 2 3 -1
1535 192 6 0.19089 12.46765531223364 6.055012332342608 0.9012526897235184 2 0 -1
707 89 3 0.512161 9.140809722234895 7.423778574024569 6.507342748185713 1 2 1
771 97 3 0.512161 0.4234280176094553 1.2958903564602193 4.521801961178115 -1 -2 0
3734 467 6 0.19089 4.4188837375526395 0.4946423645865036 8.08756219043818 1 0 2
963 121 3 0.512161 6.15054493434428 2.9423091413104507 1.6023707511831449 -1 4 2
3130 392 2 -0.169515 7.104511807253133 6.0973586842966805 2.654095401422376 -3 1 0
772 97 4 -0.488411 0.1745586368746165 1.5981359613667234 3.3589756818151524 -1 -2 0
188 24 4 -0.488411 7.465403836083902 2.341223417443384 6.810704164859962 0 1 -2
1762 221 2 -0.169515 1.3356989763657183 5.925616780439469 5.079871032522956 1 1 1
1530 192 2 -0.169515 11.04131423914595 7.128715931177586 2.1064294187661083 2 0 -1
1768 221 6 0.1559 1.4594098048799962 6.836035544825364 4.571149239486106 1 1 1
416 52 6 0.1559 8.766919119702026 10.658721587166497 0.8277256194050968 1 0 1
3509 439 5 -0.008385 11.93566589433933 8.444670532420716 7.2388344799512385 1 0 1
2099 263 3 0.512161 1.460963869458806 9.520226413785132 0.7352037076824455 2 -1 1
1764 221 4 -0.488411 3.6673120664839742 5.133933081927373 4.949692262803611 1 1 1
710 89 6 0.19089 8.285230764449276 9.30815953706888 8.109220896269688 1 2 1
1705 214 1 -0.38353 13.593280640921769 10.44672266478176 3.8008884589272056 2 3 -1
3188 399 4 -0.488411 13.71908191189073 7.551511451085057 10.562152351829521 1 0 1
1254 157 6 0.19089 9.04872011697833 10.882467475670992 5.024925578294666 0 0 1
3090 387 2 -0.169515 7.3351990330221755 1.0318502756794306 10.019024272198735 0 -1 0
1532 192 4 -0.488411 9.339594417154542 8.472805846356435 3.14296321877851 2 0 -1
1251 157 3 0.512161 10.017988483452507 12.221438496314851 7.343906038767898 0 0 1
711 89 6 0.19089 7.280209959956254 10.319141370856242 6.908674683638834 1 2 1
1081 136 1 -0.38353 1.1195541704995604 1.6756286801273315 9.407885560139391 0 -1 0
3508 439 4 -0.488411 11.756595418757346 8.525899467688797 5.225833592496446 1 0 1
1275 160 3 0.512161 0.42194689486613374 11.822005989439369 6.982410297227019 0 0 -1
552 69 6 0.1559 12.660089026092464 0.1732618415925091 4.938262583680428 -3 2 0
961 121 1 -0.38353 7.169988283448292 1.10090584903826 0.43423669849734314 -1 4 2
728 91 6 0.1559 9.461158559530533 4.88974244245899 2.3611912837334814 0 0 -4
1486 186 6 0.19089 2.2052722385333934 9.00186493082873 3.979653805442295 2 2 -2
965 121 5 -0.008385 7.18577411928523 3.0429128133929177 2.1016725487646246 -1 4 2
2144 268 6 0.1559 10.644118519534572 11.500536193688513 10.270938428422475 1 -2 0
3505 439 1 -0.38353 14.519913697085796 8.173021240818679 7.452986922761067 1 0 1
773 97 5 -0.008385 1.5043216282625542 1.2739149717017058 4.8779454965877305 -1 -2 0
3749 469 5 -0.008385 2.5094173735728265 8.362315714826739 9.447358323903357 3 0 1
1488 186 6 0.1559 5.20249496440439 9.739936455240276 3.4745978138079 2 2 -2
1533 192 5 -0.008385 10.361098525940337 9.105219502894785 1.480504195096452 2 0 -1
3129 392 1 -0.38353 6.072501753746525 6.734401617502527 3.1820031316203297 -3 1 0
1050 132 2 -0.169515 5.119256986878001 6.027530649071304 7.179280439770793 3 -2 1
1481 186 1 -0.38353 3.272655407908111 8.87946974284739 3.9384826717525905 2 2 -2
1049 132 1 -0.38353 6.444566967627551 5.900445712634715 7.203891443869037 3 -2 1
186 24 2 -0.169515 9.858111231490314 2.3033183793566057 6.831816852016291 0 1 -2
2730 342 2 -0.169515 12.77158114382989 5.244087659323787 5.324563521277416 1 1 2
2102 263 6 0.19089 2.8601688742106974 7.348632035476011 1.72331687540211 2 -1 1
3092 387 4 -0.488411 9.376835164313572 0.08149954802321441 10.62151553439326 0 -1 0
1712 214 6 0.1559 12.311861241058487 11.27135361911949 2.314585212488636 2 3 -1
2127 266 6 0.19089 8.04636443480101 0.44779463766772126 3.4917623408656797 -1 5 2
192 24 6 0.1559 9.89309647913748 2.0069018135980285 5.776803539086617 0 1 -2
733 92 5 -0.008385 3.9940201543623224 11.698596154383567 9.318821900207181 1 -1 0
2138 268 2 -0.169515 11.246610249277857 10.587377129760958 10.39796414153978 1 -2 0
1487 186 6 0.19089 3.5870005703767474 7.841701870324083 4.0567023225471 2 2 -2
1256 157 6 0.1559 11.629783466097596 12.436860366618435 5.818667391339719 0 0 1
412 52 4 -0.488411 7.29885119831333 10.58179343907312 3.029053700604584 1 0 1
1708 214 4 -0.488411 13.852408669292172 10.371631266347624 0.21557922267173968 2 3 -1
3731 467 3 0.512161 4.033586561690157 0.2569174914721986 5.45401495363994 1 0 2
1706 214 2 -0.169515 13.23065105500974 10.675099921844584 2.5151143701550454 2 3 -1
1001 126 1 -0.38353 9.122759660611592 6.343281808189292 9.955291260372933 -1 -4 0
413 52 5 -0.008385 7.399899393447766 12.556163800185953 2.9577542213030665 1 0 1
1536 192 6 0.1559 10.826414634939441 6.257772143288138 2.7323073644011004 2 0 -1
3134 392 6 0.19089 5.373004371215151 7.253006080461439 2.600172377498038 -3 1 0
3136 392 6 0.1559 7.804795970550639 5.557582116069523 3.282122387627677 -3 1 0
545 69 1 -0.38353 13.730829272277155 1.5705046288265567 3.754216123411665 -3 2 0
2342 293 6 0.19089 0.8431341798828833 5.753450766930018 10.35834285632132 -3 3 2
2735 342 6 0.19089 11.931848782195537 4.613599591841853 7.198712697319058 1 1 2
551 69 6 0.19089 14.455579143356976 1.8222623613200473 4.48808103430024 -3 2 0
549 69 5 -0.008385 12.144954070263358 0.6398348971690848 1.8427624715706188 -3 2 0
709 89 5 -0.008385 9.304178250094944 7.342205011305188 7.635569608488709 1 2 1
626 79 2 -0.169515 1.6720065336727223 2.439308302611059 0.892320837411652 3 1 -1
190 24 6 0.19089 11.006536695208348 2.5426110080433997 8.576376740866388 0 1 -2
1765 221 5 -0.008385 2.221721788416232 3.975007001186002 5.778176360438231 1 1 1
708 89 4 -0.488411 9.434648537688425 6.5267940385485765 5.647682265891463 1 2 1
3506 439 2 -0.169515 13.87142519386196 8.172216567121927 6.281183660311605 1 0 1
3507 439 3 0.512161 12.406547073717954 8.385811552119048 6.257796065627107 1 0 1
2101 263 5 -0.008385 2.2487997973385694 9.732134590292512 1.4858488803846657 2 -1 1
2733 342 5 -0.008385 14.473144453763188 4.17044000865649 4.353734763052507 1 1 2
1483 186 3 0.512161 3.535967531458453 11.286631804420413 3.5420731295901016 2 2 -2
1485 186 5 -0.008385 2.4304502658172775 11.430915470301514 3.616263913074047 2 2 -2
885 111 5 -0.008385 4.054283315928528 8.645115887520817 0.4681534743253793 0 0 1
1710 214 6 0.19089 14.400718414401958 9.820327571962261 4.063702945348884 2 3 -1
732 92 4 -0.488411 4.445417074986904 10.787093502824488 7.567002838025555 1 -1 0
1006 126 6 0.19089 9.640915634586749 7.302568491759402 9.822717836549405 -1 -4 0
2139 268 3 0.512161 12.462326338783331 10.551820387398163 9.561304128847576 1 -2 0
1250 157 2 -0.169515 10.609512664170254 11.992736999026597 5.952978815758795 0 0 1
1008 126 6 0.1559 7.1840665035939955 5.441502418774505 9.955335227866868 -1 -4 0
3192 399 6 0.1559 12.551604985351682 5.210451877776815 10.112979028534648 1 0 1
3746 469 2 -0.169515 1.9262766804384805 10.488748855296798 9.874448380009753 3 0 1
1086 136 6 0.19089 0.3079246501209255 0.8939367454069036 9.289800262551308 0 -1 0
3091 387 3 0.512161 8.698119686811115 1.0853459219103532 10.57267355626087 0 -1 0
629 79 5 -0.008385 3.4708161858996975 1.2284742929086565 1.1070065206205961 3 1 -1
1253 157 5 -0.008385 9.048803157060572 11.822103565384042 7.55168772170833 0 0 1
2734 342 6 0.19089 13.228451593923474 3.552541918677229 6.420031083381965 1 1 2
577 73 1 -0.38353 14.64036970267043 0.8101889944353853 7.266528297773886 -2 -4 3
3732 467 4 -0.488411 3.9442286297627884 0.15954845963060815 4.27846567020359 1 0 2
1255 157 6 0.19089 10.565328877659676 11.289093068001083 3.9856970634581046 0 0 1
731 92 3 0.512161 4.19625659115714 11.757633731619244 8.249413548687544 1 -1 0
3015 377 6 0.19089 13.407663288439684 2.9183685576185816 0.3265728810176839 4 -1 1
3133 392 5 -0.008385 6.515586843273219 6.738499325517148 0.6354837803261875 -3 1 0
1274 160 2 -0.169515 0.7053353848213362 11.599697695858536 5.574885360584296 0 0 -1
1279 160 6 0.19089 0.19722927552439581 10.479915827697708 3.8569936790799866 0 0 -1
2097 263 1 -0.38353 2.1674553460174897 7.166193957735927 0.9164407167884779 2 -1 1
1534 192 6 0.19089 12.165841406016897 7.8365626155203545 0.47666317626270166 2 0 -1
2701 338 5 -0.008385 0.6030978286413754 6.269992742291746 2.7384735508710114 2 2 2
3752 469 6 0.1559 1.5357898166381458 11.414274631113015 9.51094451264304 3 0 1
410 52 2 -0.169515 8.545248878750899 11.644355751145337 1.2821978374659315 1 0 1
1280 160 6 0.1559 1.483592000531054 12.282334176273729 5.102832970707518 0 0 -1
2341 293 5 -0.008385 3.1811551294901252 4.689838388554599 10.138485186844365 -3 3 2
2339 293 3 0.512161 3.5242321816386073 5.542828931968622 10.775165250325683 -3 3 2
1150 144 6 0.19089 14.398209115236744 11.98164825621133 10.829532677485743 1 2 0
2310 289 6 0.19089 6.910469354608048 8.805441216420737 18.398953348271515 -1 -1 0
472 59 6 0.1559 8.299406809318777 5.651225938626114 12.423935497126545 3 -1 -1
1203 151 3 0.512161 0.9584033164568518 0.08033264452308617 17.89979761795378 3 -1 3
2581 323 5 -0.008385 4.369946359697293 9.274809669443869 13.650460751412956 1 -2 2
1144 143 6 0.1559 4.17816812317774 6.599078726492153 18.19759381386996 0 0 1
2365 296 5 -0.008385 8.706165024633592 5.421265584111068 20.313728025917438 -1 2 0
1702 213 6 0.19089 10.780839873126283 1.2510526558289523 12.962147718445864 -2 1 -1
1455 182 6 0.19089 7.504895348601175 5.411416617147285 17.30726784914449 4 0 1
93 12 5 -0.008385 14.485539313669195 2.3690433294613746 20.515735986240927 -2 1 0
1453 182 5 -0.008385 9.602971312618202 8.0237997082538 15.844863761797022 4 0 1
470 59 6 0.19089 10.149477362442493 3.7300862127072363 13.98826125664842 3 -1 -1
466 59 2 -0.169515 8.6869508083212 5.000021524133081 13.240967968757879 3 -1 -1
2579 323 3 0.512161 4.16696854185703 8.226026822144132 13.914263305666207 1 -2 2
3751 469 6 0.19089 2.29382721773649 11.277323441392 11.843672365655818 3 0 1
1084 136 4 -0.488411 2.262766168852142 0.8721029255295765 12.64982135837603 0 -1 0
2340 293 4 -0.488411 4.729434730554969 5.558836585457678 11.079817032399895 -3 3 2
669 84 5 -0.008385 13.491282860493955 5.224817936024015 16.238059696442125 0 3 -2
3241 406 1 -0.38353 6.821449536411161 1.3618182490946824 13.715867745476528 1 -3 0
2367 296 6 0.19089 10.212596389156174 2.146444244725102 18.800207236082304 -1 2 0
198 25 6 0.19089 12.605594829911688 8.795130936960325 16.470029245287336 4 -1 0
2577 323 1 -0.38353 2.015088242771847 8.961213509815412 14.946574843418428 1 -2 2
2368 296 6 0.1559 7.737303093126021 2.6729538285026577 18.833012419330778 -1 2 0
1477 185 5 -0.008385 1.2779135070722423 1.825516278288757 20.37007187702349 2 4 0
1703 213 6 0.19089 10.11781006657256 1.4436035946783452 14.698273658112605 -2 1 -1
3242 406 2 -0.169515 5.921957783703069 0.46877126183780515 13.277316749483914 1 -3 0
2363 296 3 0.512161 7.940524230546133 4.668410941635977 19.930997124305 -1 2 0
672 84 6 0.1559 14.362408552246464 4.811308565823363 19.309998476315478 0 3 -2
1475 185 3 0.512161 0.2888515003906252 1.6836152261563744 20.902850008281824 2 4 0
2308 289 4 -0.488411 6.808827526290504 11.180706335046 15.279055016220472 -1 -1 0
3189 399 5 -0.008385 14.409922082682199 6.700819565811357 12.297856736373802 1 0 1
32 4 6 0.1559 14.081324802617472 1.2741262371270474 16.277291148666972 4 -1 1
465 59 1 -0.38353 9.905087566471341 4.443838191966305 13.228119268872037 3 -1 -1
2998 375 6 0.19089 5.858913076210744 2.566211327325312 16.842188165117804 3 -1 -2
228 29 4 -0.488411 5.959640667940873 10.1543424174235 21.394432570782424 1 -2 2
2306 289 2 -0.169515 7.687176468436624 10.47342107374417 17.342470847394033 -1 -1 0
2993 375 1 -0.38353 4.850460763526309 2.501347552528152 17.250416895066447 3 -1 -2
468 59 4 -0.488411 6.573349078100086 5.287065468102603 14.318481275172369 3 -1 -1
2924 366 4 -0.488411 8.720249538161466 8.341722697456953 12.919522840995814 -1 2 1
2366 296 6 0.19089 10.54140601443037 3.6819605702357707 19.611172698178045 -1 2 0
2926 366 6 0.19089 5.296808767173691 10.281918258435107 12.421189421965526 -1 2 1
268 34 4 -0.488411 12.054753906557115 0.9654077164308932 21.08218235589293 -1 0 2
1449 182 1 -0.38353 8.073402455648207 6.20995494522118 16.781386554518217 4 0 1
1070 134 6 0.19089 14.757880526942618 8.669988118006357 12.601630396365568 -2 2 1
3102 388 6 0.19089 2.6164047519279485 11.848775856366524 16.002379146047044 7 2 0
1700 213 4 -0.488411 14.448968917323983 1.7360938350423119 13.863850089315273 -2 1 -1
30 4 6 0.19089 13.44101428542499 2.343821797988926 19.0835577473146 4 -1 1
2822 353 6 0.19089 10.114468841187652 10.642804178550206 18.875689568942608 1 0 1
1140 143 4 -0.488411 3.6871620347275043 7.3061122945059545 20.66231631435167 0 0 1
1456 182 6 0.1559 9.599330792315206 4.958286752711912 16.26971881725181 4 0 1
3098 388 2 -0.169515 1.4838750490004338 10.721362886025688 17.394606692452967 7 2 0
262 33 6 0.19089 5.774793067985083 0.316606748473046 19.690084783112145 2 1 -1
1142 143 6 0.19089 1.858842283206896 4.694707802699772 18.339196826323803 0 0 1
2921 366 1 -0.38353 6.192350709765661 10.707799281143325 12.007521566816338 -1 2 1
1478 185 6 0.19089 0.9461311000732476 4.304400516711949 20.520364986918487 2 4 0
2997 375 5 -0.008385 5.01425486541438 2.7500647562747744 14.628785965816489 3 -1 -2
2800 350 6 0.1559 10.379046928594171 9.802414464999838 21.266841918337924 -4 1 2
2364 296 4 -0.488411 6.726232096793807 4.891903460102734 19.951171594083792 -1 2 0
1701 213 5 -0.008385 12.923608763552767 1.5567066460827237 12.469603730914752 -2 1 -1
3246 406 6 0.19089 7.222512985888266 1.1121603182119655 14.682198446588146 1 -3 0
3099 388 3 0.512161 2.6714530256922955 10.01308275557102 17.9211085919242 7 2 0
2118 265 6 0.19089 0.4681302268292026 7.41972781883621 21.364102044641115 1 -3 -1
2927 366 6 0.19089 6.160221319535778 11.639757183717007 11.516205828387514 -1 2 1
2305 289 1 -0.38353 7.615587283460606 9.642606436101952 18.41064019464935 -1 -1 0
25 4 1 -0.38353 13.211346911970697 2.023136125923934 18.08440551422815 4 -1 1
2994 375 2 -0.169515 3.7796183179841516 2.5544964195906115 16.469731410132532 3 -1 -2
2309 289 5 -0.008385 6.0807356720556704 9.521159192182568 16.167951039484695 -1 -1 0
2824 353 6 0.1559 12.647204823138978 11.845192775880765 17.451256364825834 1 0 1
2311 289 6 0.19089 8.130654992807491 9.782988053848033 19.37368928735403 -1 -1 0
1171 147 3 0.512161 10.289852313325733 11.229847575014649 14.290114757298083 0 -1 0
1085 136 5 -0.008385 0.7086137018403029 0.21853521115796543 11.580800947680185 0 -1 0
2928 366 6 0.1559 8.281962038591326 10.684924154001163 11.90109107539158 -1 2 1
1697 213 1 -0.38353 10.921952834144102 1.470548063078642 14.01622724095441 -2 1 -1
1137 143 1 -0.38353 2.7177253650021873 5.171725530866073 17.92937807721054 0 0 1
197 25 5 -0.008385 14.654970163892362 8.827575609462837 14.855311347161196 4 -1 0
3430 429 6 0.19089 10.511448587791287 0.423918173160044 17.319259673594814 0 1 0
2337 293 1 -0.38353 1.2471589133737748 6.424724905190189 11.085826230444644 -3 3 2
1172 147 4 -0.488411 9.318981533328726 10.526447292486324 14.536457006852912 0 -1 0
1139 143 3 0.512161 3.065953990338175 6.413598205616048 20.091946391579047 0 0 1
3185 399 1 -0.38353 13.411228760748067 4.194407731180062 11.826386401003981 1 0 1
2923 366 3 0.512161 7.609919861489418 8.820776699817088 12.83561124502785 -1 2 1
1704 213 6 0.1559 12.36389042003798 1.93596553630916 15.481527505777489 -2 1 -1
1451 182 3 0.512161 10.082565030316387 7.045605471442741 15.649813088062553 4 0 1
469 59 5 -0.008385 7.994571000410693 4.044724713531368 15.065545541427197 3 -1 -1
1699 213 3 0.512161 13.259427777658036 1.7494468624864108 13.502412918785494 -2 1 -1
2817 353 1 -0.38353 10.955809583951773 10.665383415323252 18.18849680656697 1 0 1
1157 145 5 -0.008385 13.273183180070571 7.989460972539419 20.217943547481564 1 -1 0
3187 399 3 0.512161 13.829579011651088 6.590960069004007 11.298993727915839 1 0 1
193 25 1 -0.38353 13.332465318825355 8.562711590962918 17.255991760404257 4 -1 0
232 29 6 0.1559 6.257293198502591 7.530843152926268 21.168518379296227 1 -2 2
2113 265 1 -0.38353 0.3121118823095067 7.613122913683597 20.31922181453471 1 -3 -1
3100 388 4 -0.488411 2.6661714526530162 9.224732212654464 18.872705491035298 7 2 0
2818 353 2 -0.169515 11.766164669398494 11.74651470430888 18.149105623402356 1 0 1
2361 296 1 -0.38353 9.769152863194387 3.0738817507065033 19.22340147145173 -1 2 0
471 59 6 0.19089 10.604997733592503 4.5694319749730985 12.418955799023381 3 -1 -1
467 59 3 0.512161 7.665144162433201 4.737080266622249 14.277808192826 3 -1 -1
1143 143 6 0.19089 2.976786910593807 5.007304780964448 16.890765129324315 0 0 1
1083 136 3 0.512161 1.5758359774741526 0.9133352301705204 11.683774511260886 0 -1 0
2996 375 4 -0.488411 2.9614313299917367 2.7954121739304973 14.242369742461422 3 -1 -2
1452 182 4 -0.488411 11.10593653491465 6.916050844728698 14.960837144929693 4 0 1
26 4 2 -0.169515 14.237918230494973 1.683009375919996 17.25197163484539 4 -1 1
1155 145 3 0.512161 12.462686895060973 7.965647412041649 20.975611103381667 1 -1 0
3745 469 1 -0.38353 2.359422331338661 10.449038507617436 11.15211356921143 3 0 1
3101 388 5 -0.008385 3.590685551064009 10.330721716664756 17.465899636487705 7 2 0
3750 469 6 0.19089 2.832074966375987 9.558107033354883 11.601417334265083 3 0 1
31 4 6 0.19089 12.12047969745133 1.8538685044187608 17.906479418496197 4 -1 1
2995 375 3 0.512161 3.9330559234712226 2.739029405470384 14.99144687162173 3 -1 -2
194 25 2 -0.169515 14.616737832121617 8.221138130494724 17.060286285313364 4 -1 0
1204 151 4 -0.488411 1.9094137840890888 0.20001653029630245 18.675135422096 3 -1 3
2582 323 6 0.19089 2.2599240803102227 9.976896826318775 14.640838086068314 1 -2 2
667 84 3 0.512161 13.31675395769655 4.959380089204965 17.27681326057583 0 3 -2
1698 213 2 -0.169515 12.166407984277935 1.7827226700705192 14.440652944110646 -2 1 -1
199 25 6 0.19089 12.841336498282054 8.450638891125479 18.20399811434798 4 -1 0
2362 296 2 -0.169515 8.4219313020774 3.3991167863324634 19.295381091083563 -1 2 0
668 84 4 -0.488411 12.172641332629825 4.62990911553164 17.61291556445976 0 3 -2
3191 399 6 0.19089 12.78763929310694 3.2881013533070553 11.621308452348234 1 0 1
1173 147 5 -0.008385 10.974224613745726 11.166061559827334 13.351056226881251 0 -1 0
1454 182 6 0.19089 7.709101674858148 7.247628631520384 16.722488838356227 4 0 1
3104 388 6 0.1559 0.4931010120635861 10.581082082521222 17.90135908513219 7 2 0
2578 323 2 -0.169515 2.8805470659037207 7.975595208250772 14.714217994251623 1 -2 2
3247 406 6 0.19089 7.2539497963975395 2.2565042764042875 13.18170619029502 1 -3 0
3097 388 1 -0.38353 1.646107780976483 11.671594279191583 16.429110763308913 7 2 0
2312 289 6 0.1559 8.26326386547213 11.396978179925927 17.4654815283915 -1 -1 0
1141 143 5 -0.008385 2.4021015476261534 5.667642600993202 20.60026068479479 0 0 1
1138 143 2 -0.169515 3.389998111374476 6.030959305618583 18.678755973717404 0 0 1
666 84 2 -0.169515 14.455979208496696 5.022484682450404 18.232158250655395 0 3 -2
2307 289 3 0.512161 6.753752260905573 10.391369828904987 16.18321924873187 -1 -1 0
3248 406 6 0.1559 5.460657010821059 0.5201145029056641 12.271218481302993 1 -3 0
2925 366 5 -0.008385 6.696603876381689 8.271716583473381 13.127452561174339 -1 2 1
3429 429 5 -0.008385 8.032097257678638 0.8706801398415441 17.98471912019966 0 1 0
3000 375 6 0.1559 2.74444189087641 2.555260433425366 16.896920390302316 3 -1 -2
2119 265 6 0.19089 0.6606346688096241 6.889651842363993 19.584845853042644 1 -3 -1
2583 323 6 0.19089 1.1929154560802568 8.719862300910679 15.59069667247989 1 -2 2
3190 399 6 0.19089 13.845536215353532 4.319600004032787 12.794485764066813 1 0 1
1450 182 2 -0.169515 9.272180572514376 5.9743040454322704 16.251033171925986 4 0 1
2823 353 6 0.19089 11.129098477395955 9.744716414402804 17.567064140758486 1 0 1
2999 375 6 0.19089 4.675385267700729 2.310982196358099 18.346797020289824 3 -1 -2
2932 367 4 -0.488411 14.631700492501231 4.968926616368873 14.548781612799141 -4 1 1
92 12 4 -0.488411 13.645903101001997 3.854508699819583 21.490263660221835 -2 1 0
1156 145 4 -0.488411 11.332326090603239 7.89024100753321 20.635731318091857 1 -1 0
1202 151 2 -0.169515 1.1732467673152536 0.013994481553904384 16.41124370890081 3 -1 3
2922 366 2 -0.169515 7.407987557587029 10.148193516736958 12.222967643677524 -1 2 1
2580 323 4 -0.488411 4.930494042532049 7.318684170028007 13.528132815854283 1 -2 2
2584 323 6 0.1559 2.648958262805159 6.984786667707617 14.998094570656207 1 -2 2
269 34 5 -0.008385 9.990015994002361 1.3227237403193928 21.104794918642728 -1 0 2
267 34 3 0.512161 10.949728968102605 1.0130176641955897 21.618248762830348 -1 0 2
2143 268 6 0.19089 10.097703429374626 9.713901747641904 11.912816098183203 1 -2 0
2344 293 6 0.1559 2.9428059179304387 7.312953785726941 11.990539177101864 -3 3 2
2338 293 2 -0.169515 2.573135496149775 6.511054874542563 11.324168460138647 -3 3 2
91 12 3 0.512161 14.612736609765369 3.12018628682721 21.333189529822395 -2 1 0
1170 147 2 -0.169515 10.731579624928345 12.159055816821892 15.323503918940284 0 -1 0
3103 388 6 0.19089 0.733452041014796 12.223920137904628 16.100381609617315 7 2 0
702 88 6 0.19089 2.489534035345713 11.612261406770061 21.11901923415916 0 0 1
1176 147 6 0.1559 10.060554949894321 12.209934272018762 16.152475293779833 0 -1 0
1208 151 6 0.1559 2.144575259736363 0.3166944329586477 16.04255337115515 3 -1 3
2799 350 6 0.19089 8.041186678233812 10.382150753211862 21.592222433503576 -4 1 2
3186 399 2 -0.169515 13.19438160180681 5.248363863623974 11.003658158521775 1 0 1
2142 268 6 0.19089 11.588164843804377 8.683765326816753 11.236848541660843 1 -2 0
2137 268 1 -0.38353 10.9529858604567 9.593013815171295 11.248555617062799 1 -2 0
2343 293 6 0.19089 0.6818759042104467 7.252028403325989 11.493504712573444 -3 3 2
3894 487 6 0.19089 2.2018384917575093 12.540996768157445 18.894702278949215 -2 3 1
3093 387 5 -0.008385 9.025432108285974 2.093032287006283 10.925876554210284 0 -1 0
1163 146 3 0.512161 7.124718782554613 1.6250870815952405 30.17986725370101 1 1 0
2569 322 1 -0.38353 6.583529269158888 10.415115531645176 27.53653094818538 2 0 2
3999 500 6 0.19089 14.130802766142027 4.636259486288706 31.36737285315426 -1 0 -3
311 39 6 0.19089 3.83531927381373 4.8152379677901695 28.18318594867678 0 -1 1
2133 267 5 -0.008385 3.9349664586476365 3.7285346246400692 25.833212369492927 2 -1 2
2794 350 2 -0.169515 10.110894378299898 10.702055440899684 21.82183900610864 -4 1 2
19 3 3 0.512161 7.172052771339666 7.099440442803986 26.682187492366065 2 -2 0
3674 460 2 -0.169515 2.940968600193548 9.971517042293721 26.899549989352188 -3 -1 -1
227 29 3 0.512161 6.107129050810979 9.338081094188215 22.287128596530295 1 -2 2
2257 283 1 -0.38353 4.441697328995239 4.33649692760462 22.476741937304368 -3 -1 0