LAMMPS data file via write_data, version 29 Sep 2021, timestep = 2500000

4096 atoms
8 atom types
3584 bonds
6 bond types
4608 angles
8 angle types
4096 dihedrals
6 dihedral types
1536 impropers
3 improper types

0 29.633646300000002 xlo xhi
0 37.69801 ylo yhi
0 43.600592945 zlo zhi
-0.00502955625499979 -0.030850502120259193 0.017347407862189357 xy xz yz

Masses

1 12.01
2 12.01
3 12.01
4 16
5 1.008
6 1.008
7 0.001
8 0.001

Bond Coeffs # harmonic

1 343.1 1.088
2 547.3 1.346
3 342.5 1.088
4 354.5 1.482
5 310.7 1.112
6 637.7 1.218

Angle Coeffs # harmonic

1 49.6 119.94
2 65.5 120.42
3 38.1 116.9
4 49.5 120.45
5 46.7 114.89
6 68.8 123.2
7 46.5 116.46
8 54.2 120.7

Dihedral Coeffs # charmm

1 2.175 2 180 0
2 2.175 2 180 0
3 6.65 2 180 0
4 6.65 2 180 0
5 2.175 2 180 0
6 2.175 2 180 0

Improper Coeffs # cvff

1 10.5 -1 2
2 1.1 -1 2
3 1.1 -1 2

Atoms # full

2028 254 4 -0.488411 10.418117558314785 10.299770686699649 0.47390035086846766 2 0 -1
847 106 6 0.19089 9.575375981086479 5.5555733627738695 9.015015832764773 1 0 -2
3125 391 5 -0.008385 8.879266681449236 12.540373768904178 2.9802363106686265 2 -1 3
2434 305 2 -0.169515 3.635576243794462 0.38096056263226535 8.510008410956633 2 -1 1
2489 312 1 -0.38353 1.2530893281380464 3.6399729778167846 9.310853442197816 0 -1 -1
3063 383 6 0.19089 1.4910504341944508 0.28768937755428875 6.961552594680813 0 2 2
2732 342 4 -0.488411 3.3733353447052083 3.220540961968427 2.6936328504641507 1 1 0
422 53 6 0.19089 6.512715082886276 10.817586301809815 10.37166414289959 2 3 2
2062 258 6 0.19089 5.186413078912329 9.574595293256584 6.4047629801064 2 2 1
1783 223 6 0.19089 10.757233809142585 6.240249945822118 2.334424681619733 1 4 -2
3155 395 3 0.512161 9.481792406719604 6.432066859177854 6.014437336896832 3 0 2
1778 223 2 -0.169515 10.891962129934058 7.979258231990214 3.5850556734873646 1 4 -2
1147 144 3 0.512161 2.2196284728419133 11.942674592282664 6.360937533107923 2 3 1
1627 204 3 0.512161 2.5722492799895713 7.8641363513247535 5.527069277491549 5 4 -1
4070 509 6 0.19089 5.248733564414806 8.646013425823911 2.439424820053647 2 4 5
2446 306 6 0.19089 13.07126035457339 5.397097670633069 5.633149089646658 4 1 2
3160 395 6 0.1559 10.896035754823105 5.65861242421315 7.465638494872399 3 0 2
4067 509 3 0.512161 6.827952513473639 9.525880857955842 0.26852879483031056 2 4 5
2060 258 4 -0.488411 7.937739382614151 9.33573935684361 3.620545672496811 2 2 1
1813 227 5 -0.008385 13.395177269661042 3.371737003866434 1.796031483909401 -2 -1 -2
1520 190 6 0.1559 9.0325030024628 7.277966912080893 10.196289010764396 -2 3 1
982 123 6 0.19089 1.231766896410136 7.014563965091497 0.16964315415757864 -1 -4 -1
2061 258 5 -0.008385 6.735798332206654 8.389464493618432 4.904492857387727 2 2 1
3316 415 4 -0.488411 14.743783458707195 12.253621575161636 3.70573812102717 1 1 3
1625 204 1 -0.38353 3.8154053484759824 5.865580719390394 6.097132288344111 5 4 -1
3666 459 2 -0.169515 9.769468139510213 11.97486602930104 7.486742345786807 0 2 -2
3530 442 2 -0.169515 8.743539022991673 0.7741821357927465 8.039172603110808 -2 0 0
3158 395 6 0.19089 11.0860720685992 8.597729287018907 6.4253900821580405 3 0 2
848 106 6 0.1559 7.2735323006586174 6.3843754747920345 9.292744724710621 1 0 -2
1777 223 1 -0.38353 10.564771513469129 7.315371542887994 2.446054724192675 1 4 -2
1154 145 2 -0.169515 8.809113465389693 3.1796694927433142 1.6622261472844506 2 -2 1
2495 312 6 0.19089 2.0989286031723333 4.281885125528224 9.304764646864376 0 -1 -1
1781 223 5 -0.008385 10.375684234628713 10.021388309526529 2.7546889213227304 1 4 -2
3672 459 6 0.1559 10.777600907116307 11.50325200444774 7.52722887081805 0 2 -2
2445 306 5 -0.008385 14.176939748761601 6.942662772272515 7.143445786492262 4 1 2
1160 145 6 0.1559 8.273408158527529 3.033494990244186 2.5848280154794345 2 -2 1
1155 145 3 0.512161 8.610583231771306 4.513759108922037 1.0331605091206963 2 -2 1
3154 395 2 -0.169515 10.632759555146508 6.528466244262063 6.863209406586971 3 0 2
2443 306 3 0.512161 14.231288027786997 6.2731911154356315 7.978284236104403 4 1 2
2475 310 3 0.512161 0.277759060460353 8.769697553651781 3.2464252285123076 -2 0 -3
1816 227 6 0.1559 12.410575317839783 5.32705631069701 3.9604299758906745 -2 -1 -2
1705 214 1 -0.38353 3.4030353933610304 6.924061475227499 10.418201873084213 3 2 -1
1762 221 2 -0.169515 1.4973173408572458 9.85089992758731 10.660509393511582 2 1 2
1632 204 6 0.1559 2.289297341204422 6.580438652410447 7.31425046626263 5 4 -1
846 106 6 0.19089 8.928796142175049 3.792550832367059 8.827493025803694 1 0 -2
3534 442 6 0.19089 7.6603360336412365 0.033099525928801526 9.682670838959206 -2 0 0
1518 190 6 0.19089 10.93571842697464 9.705285759021157 9.625764881874833 -2 3 1
2327 291 6 0.19089 5.518931381285764 5.377156120994652 3.458501539816521 -4 1 3
4069 509 5 -0.008385 6.183209187544659 10.304449173473738 0.6842535682975296 2 4 5
1989 249 5 -0.008385 3.818570536289689 9.872940335299576 2.151858075501348 2 0 2
2365 296 5 -0.008385 1.3410379145951101 4.148020734034173 1.7205963775485182 -1 3 0
843 106 3 0.512161 6.291094888200854 4.400110096250838 9.041486952639376 1 0 -2
3315 415 3 0.512161 14.086970161284508 11.779653731083462 4.57661936509085 1 1 3
1513 190 1 -0.38353 10.604193690903399 8.67076651569212 9.684675038598524 -2 3 1
2437 305 5 -0.008385 4.106289554979797 1.5870286632964463 10.187054092458764 2 -1 1
844 106 4 -0.488411 5.1841893997512285 4.878753258273276 8.883922180286275 1 0 -2
1542 193 6 0.19089 14.254565374786493 0.9132123104178469 3.5900013451559896 1 -2 0
2734 342 6 0.19089 0.536528376722421 2.764876660526738 5.250851761179259 1 1 0
2442 306 2 -0.169515 13.524190461544018 5.025225765160982 7.6753994018956115 4 1 2
1573 197 5 -0.008385 13.505749231307703 10.091868142946991 1.821365129676143 -2 0 2
2363 296 3 0.512161 0.6278640970245376 3.5132574567677315 1.115453619838897 -1 3 0
2059 258 3 0.512161 7.15696928973589 9.343627288906431 4.561566202025848 2 2 1
2064 258 6 0.1559 7.01321720554744 11.49301369051706 4.828791609740065 2 2 1
2133 267 5 -0.008385 0.43186498711613674 0.515662691824175 2.7444016272470457 3 0 3
3157 395 5 -0.008385 9.19804969748458 7.418451319727991 5.504770433550713 3 0 2
1784 223 6 0.1559 11.344486383022733 7.489054527332859 4.43546033460033 1 4 -2
2433 305 1 -0.38353 3.970285789891599 1.31318716633992 7.58125989450735 2 -1 1
2730 342 2 -0.169515 2.5850261620938793 3.123788599875947 4.892063683260396 1 1 0
3535 442 6 0.19089 6.8576075583776195 1.4979240984089217 8.905760513269504 -2 0 0
2326 291 6 0.19089 5.672023704836771 3.699606612287318 2.6061305428679304 -4 1 3
1810 227 2 -0.169515 12.413996718168596 4.398239488173936 3.349233912362663 -2 -1 -2
1571 197 3 0.512161 13.55625710592608 9.048813022086032 1.5308807213124802 -2 0 2
3159 395 6 0.19089 12.153966071992608 7.739441890400386 7.6775303297263235 3 0 2
1811 227 3 0.512161 13.444948217886973 4.313760953290756 2.2954712160432287 -2 -1 -2
2729 342 1 -0.38353 1.5017036154091556 3.0713916289060337 5.671633231423389 1 1 0
3319 415 6 0.19089 14.08693200050861 9.264838183665569 6.946795106861559 1 1 3
423 53 6 0.19089 4.61591926408852 10.77271296887223 10.106219145097535 2 3 2
3314 415 2 -0.169515 14.541722882165812 10.671091403227306 5.412833920369457 1 1 3
2448 306 6 0.1559 13.370360072601782 4.330970268189813 8.51804042042213 4 1 2
1538 193 2 -0.169515 12.35197350263359 0.9097184003420007 4.376330695657879 1 -2 0
1988 249 4 -0.488411 2.9977388734366506 11.577163814480437 2.968895268846434 2 0 2
266 34 2 -0.169515 14.177742980008349 1.6213140872822145 0.48928337611666733 0 0 4
4065 509 1 -0.38353 6.043638970668515 7.9845092717425 2.096754714290384 2 4 5
1814 227 6 0.19089 11.40558955185061 2.646409759081699 2.633336050018934 -2 -1 -2
2473 310 1 -0.38353 2.2332659644473676 7.624990142930955 2.4277445763152605 -2 0 -3
2435 305 3 0.512161 3.819072783797295 0.5691513657587679 9.93197396266198 2 -1 1
3318 415 6 0.19089 12.713382492880235 10.51514742628649 6.615053406070717 1 1 3
1572 197 4 -0.488411 12.552502186027121 8.341486636714139 1.3969351283828513 -2 0 2
2731 342 3 0.512161 2.453509138319995 2.939060810793759 3.447378591300454 1 1 0
3668 459 4 -0.488411 8.724568168174184 9.841316441745516 6.950604291455645 0 2 -2
2477 310 5 -0.008385 0.6075885530543587 9.639321705010031 2.578678196350403 -2 0 -3
3153 395 1 -0.38353 11.305155112890162 7.680447203078627 6.9941906429186025 3 0 2
4066 509 2 -0.169515 6.776373466985229 8.229359109115281 0.963719191134058 2 4 5
2439 305 6 0.19089 3.919087573659632 1.0411639688553755 6.537814174004111 2 -1 1
2058 258 2 -0.169515 6.681854367244538 10.54839246594087 5.237932287967367 2 2 1
2321 291 1 -0.38353 5.798791984721339 4.27511179791874 3.5524304792040144 -4 1 3
3057 383 1 -0.38353 0.6273718614839788 0.16056205953827207 7.624757656993389 0 2 2
3669 459 5 -0.008385 7.632664848727084 11.550268564778785 7.333975782794204 0 2 -2
2717 340 5 -0.008385 12.804146709710814 1.3066225359983163 9.330577496417229 0 4 2
1514 190 2 -0.169515 9.413062887596551 8.265445549468918 10.241804693734524 -2 3 1
845 106 5 -0.008385 6.527896461840838 3.3293106178533938 9.148491679199001 1 0 -2
1596 200 4 -0.488411 4.691131757450509 2.9793227680683176 0.1281684967521616 1 -2 2
2364 296 4 -0.488411 1.0912244112474474 2.6207356275014253 0.4437739590076348 -1 3 0
1544 193 6 0.1559 11.617258177789175 1.5483645849799506 4.969018855180142 1 -2 0
3156 395 4 -0.488411 8.875522722343677 5.3836624552733925 5.926816892480249 3 0 2
1157 145 5 -0.008385 9.207332290953921 4.662519452922496 0.15716603723064748 2 -2 1
1630 204 6 0.19089 4.4232431268128005 5.885220110604449 5.17218855348951 5 4 -1
1537 193 1 -0.38353 13.513879430142143 1.4835492915874788 4.074721983887963 1 -2 0
2478 310 6 0.19089 2.3598327835111803 8.56580031305412 1.8524203022752013 -2 0 -3
1543 193 6 0.19089 13.834364414761039 2.492071832651321 4.272792629372984 1 -2 0
842 106 2 -0.169515 7.488676050454766 5.333306264657752 9.090633727106253 1 0 -2
3317 415 5 -0.008385 13.037603088057624 12.071624571353375 4.7981133066875605 1 1 3
1779 223 3 0.512161 10.810759423097707 9.50369479965374 3.62068158022591 1 4 -2
1631 204 6 0.19089 3.9798509203450143 4.990547573646801 6.67143736722257 5 4 -1
417 53 1 -0.38353 5.577136317533353 11.30836729597668 10.117758265158976 2 3 2
1628 204 4 -0.488411 1.68442867501588 8.60175552611902 5.801588175866288 5 4 -1
2736 342 6 0.1559 3.5411690246387346 3.4883401627669555 5.273368471994096 1 1 0
1711 214 6 0.19089 2.612155065186051 6.16200470806254 10.215455558020933 3 2 -1
2490 312 2 -0.169515 0.023199253301995813 4.120715722872179 9.499819216891803 0 -1 -1
3529 442 1 -0.38353 7.738723607751848 0.7767723442701191 8.914156054312581 -2 0 0
3667 459 3 0.512161 8.639935064407476 11.041446636796866 7.171602607074694 0 2 -2
2474 310 2 -0.169515 1.1354979077592409 7.548562521472917 3.1680913186152733 -2 0 -3
4072 509 6 0.1559 7.485652296617543 7.526292503708541 0.5757419750306434 2 4 5
1519 190 6 0.19089 11.230494833184148 7.923706742559924 9.216450063293063 -2 3 1
2325 291 5 -0.008385 6.162450262051565 1.5708542850095955 4.070098844042875 -4 1 3
1629 204 5 -0.008385 3.230647927813159 8.133000825175332 4.652374108210769 5 4 -1
2063 258 6 0.19089 5.298088186024333 11.403608958206295 6.6217887118448 2 2 1
2324 291 4 -0.488411 6.6448970805052445 1.8364061711201756 6.050615295347741 -4 1 3
2438 305 6 0.19089 4.383352400259493 2.2993238919633887 7.739908887172841 2 -1 1
1780 223 4 -0.488411 11.214903648326354 10.142716057086245 4.626373643346447 1 4 -2
2735 342 6 0.19089 1.4435901810607588 3.212296626350305 6.788350603222702 1 1 0
1149 144 5 -0.008385 2.148369342477733 11.231152334678887 5.528023902018257 2 3 1
4071 509 6 0.19089 6.244366322954106 7.0743647074315446 2.730623376615721 2 4 5
1150 144 6 0.19089 0.04923616846981486 10.121183151137851 6.788716867715282 2 3 1
1764 221 4 -0.488411 0.5845741323578602 7.799171847390738 9.943139316927 2 1 2
1809 227 1 -0.38353 11.379783005739618 3.51519642711768 3.3793040498951954 -2 -1 -2
2328 291 6 0.1559 6.260721011265662 4.3939147047752 5.589645747455809 -4 1 3
2447 306 6 0.19089 12.470931873138461 3.7877730098654334 6.203590758148914 4 1 2
2323 291 3 0.512161 6.353467452633798 2.2528577519847373 4.939317263648113 -4 1 3
1986 249 2 -0.169515 3.4661109378518944 11.457115319208429 0.6856820228504691 2 0 2
1987 249 3 0.512161 3.3801933311555543 10.912991993438329 2.0261526020378215 2 0 2
2057 258 1 -0.38353 5.695527250719179 10.525793925218377 6.163381676009695 2 2 1
2479 310 6 0.19089 2.9725967063462644 6.813598890793089 2.349695424884892 -2 0 -3
1159 145 6 0.19089 9.448284651415774 1.2631445016120355 1.445010989887317 2 -2 1
2733 342 5 -0.008385 1.417298148963206 2.6620216906084764 3.062904665874076 1 1 0
1156 145 4 -0.488411 7.970714076177019 5.385763842503754 1.5462128472310912 2 -2 1
841 106 1 -0.38353 8.75354532082847 4.862867706269238 8.981140859095397 1 0 -2
1815 227 6 0.19089 10.54312447882165 3.7321211690945373 4.043203504765599 -2 -1 -2
1626 204 2 -0.169515 2.8192373701544837 6.70370611417547 6.3624904231332415 5 4 -1
1153 145 1 -0.38353 9.459209576575102 2.211879554275478 1.0683479854418323 2 -2 1
892 112 4 -0.488411 7.734768720362197 0.25127752835430883 1.3805451957794967 -2 -3 1
2322 291 2 -0.169515 6.091045568620558 3.705707412884538 4.7413710102844355 -4 1 3
1782 223 6 0.19089 10.263039910306007 7.888732040093295 1.6069737018539307 1 4 -2
270 34 6 0.19089 12.678808190263437 0.08487481543825469 0.41938500003082124 0 0 4
3536 442 6 0.1559 8.888187674757202 1.5975196833237522 7.279342627273298 -2 0 0
1763 221 3 0.512161 0.5713058860574877 8.683000362940945 10.760190636736763 2 1 2
1768 221 6 0.1559 2.1953468323106606 9.885903498836349 9.852928377826355 2 1 2
3313 415 1 -0.38353 13.75897576014242 10.146634572370784 6.383404431774585 1 1 3
265 34 1 -0.38353 12.981303107224061 1.122619417765401 0.17051256626484815 0 0 4
2494 312 6 0.19089 1.324355427916082 2.573894402473169 9.012311783925783 0 -1 -1
1812 227 4 -0.488411 14.24121624375603 5.150160975781106 2.0056299461789404 -2 -1 -2
2441 306 1 -0.38353 13.037892279211727 4.735701974465991 6.425560146396027 4 1 2
1710 214 6 0.19089 4.267417896150852 6.898447175241639 9.70540917663193 3 2 -1
2032 254 6 0.1559 12.270750023820181 12.107387292824717 0.9048016580529646 2 0 -1
2715 340 3 0.512161 13.021172677196624 0.7873509523430613 10.315579891931574 0 4 2
2714 340 2 -0.169515 14.315457041706273 1.2084038049464714 10.850268792531756 0 4 2
2480 310 6 0.1559 0.8176074117267531 6.662351358563244 3.699278609851011 -2 0 -3
1515 190 3 0.512161 8.42018233872925 9.19330069114723 10.835295609002678 -2 3 1
1146 144 2 -0.169515 1.000998227643066 12.05360496172308 7.2455252073230225 2 3 1
1145 144 1 -0.38353 0.07060192964815705 11.120919071526998 7.344383420415796 2 3 1
468 59 4 -0.488411 13.186142856410697 7.6925143087485806 10.749508760637763 4 0 0
2718 340 6 0.19089 14.626098499703051 2.673338306978907 9.388439402345215 0 4 2
1992 249 6 0.1559 2.9696353604343257 12.42306896159452 0.5776286688691492 2 0 2
1158 145 6 0.19089 9.993279520960488 2.3455488105621476 0.13685624190402182 2 -2 1
272 34 6 0.1559 14.376774836251247 2.669097241367202 0.2175385685600915 0 0 4
2026 254 2 -0.169515 12.484549459450612 11.508146985774058 0.06427415652545616 2 0 -1
60 8 4 -0.488411 6.726964998230412 5.820504926334532 12.927620886534385 4 -2 0
2075 260 3 0.512161 5.877341984403306 7.697002419582596 15.517470024982483 -1 1 1
1826 229 2 -0.169515 8.696201285546222 10.210934282815112 18.22448168725954 -2 2 0
1637 205 5 -0.008385 12.084516778281573 1.923834867249186 18.440470048914865 -2 2 1
3762 471 2 -0.169515 10.722129351869068 4.22851622824586 16.35969068355327 -2 -1 0
2937 368 1 -0.38353 10.802970453209229 8.721627702666494 14.766709012060996 -3 -1 1
2378 298 2 -0.169515 0.9258085010123892 1.1128938988445438 15.448744706421213 0 0 -1
3504 438 6 0.1559 5.970932375324695 8.677707284262043 21.06990613568773 2 -2 3
3176 397 6 0.1559 4.650241853856623 3.083023175726473 21.589176300307365 2 -1 2
3017 378 1 -0.38353 11.811403672713944 3.1476319925458704 12.397570174291777 3 0 1
2940 368 4 -0.488411 12.87872521021912 11.66656242504458 14.759102287622339 -3 -1 1
571 72 3 0.512161 11.763613473911956 7.0780195069420975 18.242205661608697 1 5 -1
138 18 2 -0.169515 4.619522735033766 11.938712677095475 14.817447451902408 2 1 0
57 8 1 -0.38353 4.604832041586955 2.8811810501602264 12.941670752881835 4 -2 0
4042 506 2 -0.169515 14.061657047796905 11.154079180989457 12.55515541859506 4 1 -1
1640 205 6 0.1559 11.405975665310198 2.320432609509599 21.585646685415394 -2 2 1
1831 229 6 0.19089 9.197965641977667 12.040579783932673 17.264838949292244 -2 2 0
3997 500 5 -0.008385 1.243219766768167 11.397848976510849 19.99162152774318 1 0 -2
2416 302 6 0.1559 4.986787588977209 3.1954497361173795 16.051788667499867 -5 -3 1
3018 378 2 -0.169515 11.376249551155084 4.359004623681891 12.631138856403178 3 0 1
2410 302 2 -0.169515 5.430675436614669 4.061533688400695 16.56441717893267 -5 -3 1
3757 470 5 -0.008385 1.71926035977278 8.206905135962614 19.97722994645305 0 1 0
2381 298 5 -0.008385 0.5964716737854688 2.7553688662984186 16.951611881483366 0 0 -1
3768 471 6 0.1559 10.953859327773277 4.726606402743039 17.29102096788628 -2 -1 0
2080 260 6 0.1559 6.021536536641768 8.753657040479103 17.515011902417715 -1 1 1
1828 229 4 -0.488411 8.097182446877827 8.018146122286034 19.14102641986812 -2 2 0
2943 368 6 0.19089 10.670978571556132 7.744930070978891 14.337405208239348 -3 -1 1
3171 397 3 0.512161 2.524111500379416 2.3612579907002673 21.416025217236967 2 -1 2
3022 378 6 0.19089 11.127182312751005 2.497796212729785 11.839800191630337 3 0 1
1638 205 6 0.19089 10.82990291994619 0.0899859901235513 19.485430718875737 -2 2 1
522 66 2 -0.169515 13.396316735829432 9.479362328913078 21.476741878909866 -1 2 -2
3958 495 6 0.19089 13.438147218429727 0.6297429688822412 14.171024232308806 -2 2 0
3503 438 6 0.19089 6.22787743314113 10.590106501490881 19.610863502190693 2 -2 3
3019 378 3 0.512161 10.07438713337111 4.768583838840064 12.193323588181729 3 0 1
4041 506 1 -0.38353 12.894182477920916 11.433873970986564 11.936113564631833 4 1 -1
2432 304 6 0.1559 5.72614897457717 0.6436192242011007 12.14572553654847 4 0 1
527 66 6 0.19089 13.34927854217244 9.33329671815668 19.333224214007465 -1 2 -2
205 26 5 -0.008385 6.933380988373108 3.479032633902807 21.586785200214532 1 2 -1
1636 205 4 -0.488411 12.615783712802441 3.5039111522512543 19.54695389122793 -2 2 1
3645 456 5 -0.008385 2.3963046655295654 4.0215372910214695 11.870237285776438 -3 -3 -1
3732 467 4 -0.488411 14.610037907187985 5.1349797261197025 13.189442545703672 2 0 2
3641 456 1 -0.38353 0.6918409913204819 2.225751944790842 11.966755075031399 -3 -3 -1
2426 304 2 -0.169515 6.5178148649067085 0.48772895549827006 12.852177986451698 4 0 1
3175 397 6 0.19089 5.368768013894304 2.1577455866693827 19.44834993922741 2 -1 2
3169 397 1 -0.38353 4.370216717291338 1.9501424601801716 19.85791238896377 2 -1 2
3957 495 5 -0.008385 11.184580534908926 1.0821832286593513 15.218946054961071 -2 2 0
2312 289 6 0.1559 9.004137706424338 0.2606931925358392 18.794637570289424 -1 -1 -1
142 18 6 0.19089 2.9010241090919626 11.602197870822852 16.030046214518947 2 1 0
3020 378 4 -0.488411 9.651170642098267 5.913465130825707 12.258495587063837 3 0 1
3755 470 3 0.512161 1.9065812352902918 7.176961879384777 20.21290236521572 0 1 0
1716 215 4 -0.488411 0.27289748679969883 4.5494886789595 19.305613787261002 0 1 2
58 8 2 -0.169515 5.149422263878821 4.0277463355419325 12.44058161677544 4 -2 0
4048 506 6 0.1559 14.422620267058823 10.118641890737779 12.669595743136146 4 1 -1
3497 438 1 -0.38353 6.711771836322964 10.578116070835833 20.57871994009744 2 -2 3
1832 229 6 0.1559 8.956053258296002 10.548461176886054 19.255299633676426 -2 2 0
2414 302 6 0.19089 7.0874895696384534 4.543266784595099 17.70030267606442 -5 -3 1
140 18 4 -0.488411 4.168062167035743 12.535446721427071 12.575080621579662 2 1 0
576 72 6 0.1559 11.562001222433663 6.437623784272096 16.103428844853717 1 5 -1
1707 214 3 0.512161 4.425835081385857 8.685995300432642 11.801023009838023 3 2 -1
2942 368 6 0.19089 9.946027970383103 9.042259605309484 15.352110821175078 -3 -1 1
3996 500 4 -0.488411 3.063466497973606 11.189947652499287 19.171465638457267 1 0 -2
3024 378 6 0.1559 11.8934921915759 5.045032651783975 13.30219530827619 3 0 1
2311 289 6 0.19089 7.055532463999431 0.723641216111511 17.27399996021934 -1 -1 -1
1639 205 6 0.19089 10.364020066413161 0.052731972288565736 21.26412315493991 -2 2 1
3766 471 6 0.19089 9.21448960864706 4.153958042470479 14.792161774360197 -2 -1 0
3760 470 6 0.1559 1.6386799799420382 5.583843977058107 21.63927836035062 0 1 0
141 18 5 -0.008385 2.6379858919281554 11.908285920553203 13.766289857791746 2 1 0
1237 155 5 -0.008385 12.759672202769558 11.428891510130002 18.2065539271423 -4 2 0
61 8 5 -0.008385 6.709984678183791 4.100823232794043 14.02241882052327 4 -2 0
743 93 6 0.19089 0.21498272631191154 11.92709182947493 17.560764904473295 5 2 0
144 18 6 0.1559 5.7419849177726645 12.013780172498137 14.822209575434863 2 1 0
1712 214 6 0.1559 2.511195976580826 7.460477405193863 12.218981856575223 3 2 -1
2944 368 6 0.1559 12.62233059060378 9.155448619789244 13.843029966479675 -3 -1 1
1675 210 3 0.512161 0.15435534357372427 7.512321814670019 17.628780386352854 0 1 1
2555 320 3 0.512161 8.713491396616108 12.129026970049026 12.963443670201134 5 1 2
2415 302 6 0.19089 7.045978318129428 2.762725821428928 17.056752725447158 -5 -3 1
4047 506 6 0.19089 12.229633815585128 10.605281587981523 11.580477128531005 4 1 -1
64 8 6 0.1559 4.703009208719296 4.594807562312271 11.598000257829476 4 -2 0
1678 210 6 0.19089 0.39828641194111625 9.951856416861704 18.886455601298035 0 1 1
59 8 3 0.512161 6.285658756268511 4.687756884672836 13.186052622560334 4 -2 0
3995 500 3 0.512161 2.376739345426905 11.356044268435166 20.16963726203038 1 0 -2
137 18 1 -0.38353 3.972375065097553 11.68510262874535 15.975402389768952 2 1 0
3763 471 3 0.512161 11.6559865422182 3.3287130082324787 15.745295925670382 -2 -1 0
3767 471 6 0.19089 8.916191851034553 5.293639757648748 16.217782880918367 -2 -1 0
1708 214 4 -0.488411 4.243321927263015 9.489654051536647 12.666689883771992 3 2 -1
2939 368 3 0.512161 11.890855788159818 10.91237635309494 14.945374331967281 -3 -1 1
2941 368 5 -0.008385 11.042875227255418 11.278794008594922 15.61633711819602 -3 -1 1
3174 397 6 0.19089 3.711551633622403 1.3803255519196964 19.20387360128572 2 -1 2
1766 221 6 0.19089 0.5774248344379244 10.93306082696607 12.270263481142079 2 1 2
2409 302 1 -0.38353 6.6040922129078625 3.7657000272531977 17.191866955381983 -5 -3 1
572 72 4 -0.488411 10.704001830255173 7.647714533566423 18.34175271154412 1 5 -1
204 26 4 -0.488411 7.704130126207723 3.9630099314848573 19.77977960063166 1 2 -1
2425 304 1 -0.38353 7.718006374060002 1.1314726242081659 12.743094922213796 4 0 1
2078 260 6 0.19089 3.564380822794034 8.784926634840138 15.740385365875364 -1 1 1
574 72 6 0.19089 14.247160668497346 5.90042844054218 17.601617620168135 1 5 -1
3764 471 4 -0.488411 12.695393790223319 3.0469918500194186 16.279940425077747 -2 -1 0
1516 190 4 -0.488411 7.373936887166824 8.86827456945346 11.294275484668631 -2 3 1
1633 205 1 -0.38353 10.838795010257945 0.6079001385648728 20.452284270635065 -2 2 1
2076 260 4 -0.488411 6.992171618037929 7.162789669932313 15.485042246609058 -1 1 1
2720 340 6 0.1559 14.706642824950475 0.6957658042891656 11.778441179496207 0 4 2
469 59 5 -0.008385 13.679883130041182 7.283836978231218 12.64891592662707 4 0 0
1635 205 3 0.512161 12.077786843464839 2.4389803436802246 19.48428895437944 -2 2 1
139 18 3 0.512161 3.7468127086919156 12.139942518190777 13.644010668430122 2 1 0
208 26 6 0.1559 9.752499680443886 4.802034612894037 21.16943043383152 1 2 -1
2379 298 3 0.512161 1.3766527055793867 2.2252544433022905 16.38975306316848 0 0 -1
2413 302 5 -0.008385 5.269733684877031 6.211007808491407 17.10309416849862 -5 -3 1
3955 495 3 0.512161 11.417024094724777 0.21013537814843228 15.843111487714319 -2 2 0
1767 221 6 0.19089 2.0407359647682144 11.734187777281326 11.430843020454589 2 1 2
570 72 2 -0.169515 12.248849278626931 6.4608935695996275 16.978487388165988 1 5 -1
1706 214 2 -0.169515 3.365563191876697 7.671625783727843 11.531624546497182 3 2 -1
3643 456 3 0.512161 1.643842123358917 4.362410620834091 12.59850444714956 -3 -3 -1
2384 298 6 0.1559 1.6400732994230671 0.4681523001723149 14.936007927538324 0 0 -1
3754 470 2 -0.169515 1.4174876676863042 6.697426861045377 21.471884692817557 0 1 0
63 8 6 0.19089 3.741510483267309 2.4250678264114125 12.479839276055282 4 -2 0
2380 298 4 -0.488411 2.5886337605301035 2.3976350561095736 16.586769187603366 0 0 -1
3021 378 5 -0.008385 9.436770114893726 3.968798818359291 11.711411333094388 3 0 1
202 26 2 -0.169515 8.904606570596908 4.394798619104081 21.718634109030862 1 2 -1
1761 221 1 -0.38353 1.4012480721545753 10.878519589381206 11.505829904921278 2 1 2
3994 500 2 -0.169515 3.018845315387554 11.391564527970031 21.545494428217214 1 0 -2
3023 378 6 0.19089 12.72652417466465 2.7506672228077638 12.86407508917638 3 0 1
3765 471 5 -0.008385 11.363671111759523 2.840498571983752 14.781699318191894 -2 -1 0
3756 470 4 -0.488411 2.610476544871108 6.519666278617102 19.466474847443255 0 1 0
3173 397 5 -0.008385 1.9098151862904296 1.7416268356070963 20.70378617176604 2 -1 2
3642 456 2 -0.169515 0.6016388177347053 3.3359451690095154 12.758913957523513 -3 -3 -1
1825 229 1 -0.38353 8.831979914211301 11.012352586821034 17.16559780579327 -2 2 0
2079 260 6 0.19089 3.664910245767276 9.542405946964386 17.47074656693147 -1 1 1
1238 155 6 0.19089 10.858244209065772 11.753689819576088 19.51689044053427 -4 2 0
3761 471 1 -0.38353 9.580314943314814 4.576042663805391 15.735965742207034 -2 -1 0
2073 260 1 -0.38353 4.162175504202488 8.937189769987219 16.66626601782527 -1 1 1
2074 260 2 -0.169515 5.399787578392812 8.529698770387311 16.638510612136294 -1 1 1
3646 456 6 0.19089 1.5494351424361719 2.0027598358481877 11.333890843985069 -3 -3 -1
2556 320 4 -0.488411 9.71232167086451 11.451270890074342 12.757814923108166 5 1 2
2430 304 6 0.19089 8.561181540420089 0.8046260077359734 13.341591042896686 4 0 1
2938 368 2 -0.169515 11.874047387021209 9.510615848662985 14.506721878068266 -3 -1 1
467 59 3 0.512161 13.978853261419177 7.730434525892987 11.690458424598752 4 0 0
1829 229 5 -0.008385 8.181814048036767 8.402312792491442 17.15552067844513 -2 2 0
1827 229 3 0.512161 8.291132854337299 8.771661572059935 18.16918544123177 -2 2 0
2411 302 3 0.512161 4.690107284064595 5.322025557179533 16.648590260417205 -5 -3 1
62 8 6 0.19089 5.085286324579007 2.439452980730443 13.824175956527405 4 -2 0
2077 260 5 -0.008385 5.108256403109459 7.607085554366384 14.663795180929368 -1 1 1
3498 438 2 -0.169515 6.541304601862444 9.567337286330385 21.426202212705686 2 -2 3
3644 456 4 -0.488411 1.7224164430452658 5.399767222934881 13.26702153154532 -3 -3 -1
2412 302 4 -0.488411 3.654932773252184 5.461718093030687 16.069198679247364 -5 -3 1
569 72 1 -0.38353 13.43595241417146 5.885156089265828 16.881919600520387 1 5 -1
72 9 6 0.1559 14.133778044296221 4.833658355398366 19.86842316942019 -3 2 -1
2924 366 4 -0.488411 11.95489430047103 5.912021140312399 20.894704488697332 0 2 1
203 26 3 0.512161 7.8027306768315166 3.8448091211325512 20.97593070977614 1 2 -1
3170 397 2 -0.169515 3.9273927517919094 2.463336414369399 21.015670417249925 2 -1 2
573 72 5 -0.008385 12.512604014519392 7.140142704347803 19.019590521347478 1 5 -1
143 18 6 0.19089 4.53058735336266 11.670067640622069 16.919968260488538 2 1 0
1677 210 5 -0.008385 0.8915943150768512 8.202473134373113 17.154271577144534 0 1 1
1830 229 6 0.19089 8.616560479339315 10.56096875936823 16.230043334358335 -2 2 0
575 72 6 0.19089 13.700263323894514 5.4530131919994895 15.95260964668274 1 5 -1
1717 215 5 -0.008385 0.32346384682777257 3.6527432633426464 21.172910141085644 0 1 2
4046 506 6 0.19089 12.612208364990263 12.481612724161241 11.770319519786812 4 1 -1
2431 304 6 0.19089 7.896934672766033 1.9402981103229229 12.075336977429941 4 0 1
1634 205 2 -0.169515 11.417715445228028 1.7833178516151482 20.62445184499839 -2 2 1
521 66 1 -0.38353 13.947481502021558 9.426975275402535 20.237759426695686 -1 2 -2
4000 500 6 0.1559 4.076191637793487 11.193843282487977 21.645249171023355 1 0 -2
2557 320 5 -0.008385 7.808804529964264 12.20461377921872 12.271311967609298 5 1 2
1235 155 3 0.512161 13.261608608722069 12.303271407844502 18.48047061106356 -4 2 0
3502 438 6 0.19089 7.316598004134828 11.41472365183716 20.793226375095102 2 -2 3
528 66 6 0.1559 12.319201438198167 9.401046203619236 21.633903195257012 -1 2 -2
1709 214 5 -0.008385 5.174108824616883 8.829604927812008 11.03743007857088 3 2 -1
2487 311 6 0.19089 14.67115287546337 0.29736118809327455 18.13894726437901 -1 -3 1
2967 371 6 0.19089 0.09249901992082558 7.665339193584178 13.222471785409958 -2 -2 0
1164 146 4 -0.488411 9.48755911289523 9.88463269886116 21.7591173743166 1 0 0
71 9 6 0.19089 14.173821399648636 3.1914721001387316 21.782488705816274 -3 2 -1
1517 190 5 -0.008385 8.704834077266074 10.254946487283084 10.905607798868791 -2 3 1
4063 508 6 0.19089 4.8050812844414645 7.1457901410765805 25.981114960435647 4 -1 0
3130 392 2 -0.169515 1.9500196993050705 4.050692471632415 25.02599263696624 -5 0 -1
578 73 2 -0.169515 8.205809097357212 9.614221969706191 31.33403063696924 -3 -3 3
2925 366 5 -0.008385 13.129667235756978 5.623112514938533 22.602772719245447 0 2 1
1161 146 1 -0.38353 10.690480254791721 10.405271480068441 25.079270782610045 1 0 0
3656 457 6 0.1559 6.515807628580567 5.682910732372997 22.775363031979147 0 2 -4
4064 508 6 0.1559 6.832514198601136 6.2756094227200006 25.200230421854 4 -1 0
582 73 6 0.19089 8.685771002329659 11.263628509737005 29.964703862920338 -3 -3 3
3653 457 5 -0.008385 3.468607429749539 5.232552771948017 22.340386170973733 0 2 -4
1056 132 6 0.1559 10.382157700102379 3.164308608060084 24.73971476908974 3 -1 2
2551 319 6 0.19089 13.264342254732522 0.7883201232294847 23.376031526187532 1 1 0