LAMMPS data file via write_data, version 29 Sep 2021, timestep = 1000000

4096 atoms
8 atom types
3584 bonds
6 bond types
4608 angles
8 angle types
4096 dihedrals
6 dihedral types
1536 impropers
3 improper types

0 30.167756 xlo xhi
0 38.212491 ylo yhi
0 44.2460419 zlo zhi
0 0 0 xy xz yz

Masses

1 12.01
2 12.01
3 12.01
4 16
5 1.008
6 1.008
7 0.001
8 0.001

Bond Coeffs # harmonic

1 343.1 1.088
2 547.3 1.346
3 342.5 1.088
4 354.5 1.482
5 310.7 1.112
6 637.7 1.218

Angle Coeffs # harmonic

1 49.6 119.94
2 65.5 120.42
3 38.1 116.9
4 49.5 120.45
5 46.7 114.89
6 68.8 123.2
7 46.5 116.46
8 54.2 120.7

Dihedral Coeffs # charmm

1 2.175 2 180 0
2 2.175 2 180 0
3 6.65 2 180 0
4 6.65 2 180 0
5 2.175 2 180 0
6 2.175 2 180 0

Improper Coeffs # cvff

1 10.5 -1 2
2 1.1 -1 2
3 1.1 -1 2

Atoms # full

2531 317 3 0.512161 13.883559458708916 2.1325954175276833 3.1041297625821085 4 -2 -1
167 21 6 0.19089 13.580511432933976 1.2316951551421829 10.057936406214187 -4 1 0
1425 179 1 -0.38353 0.9143309276352262 11.721333778314055 8.594346061938506 2 1 1
858 108 2 -0.169515 0.41803788154607524 3.9683385213780578 5.8626745337164055 2 2 2
1352 169 6 0.1559 14.032554891258375 9.88652337817907 0.7527114571715725 -4 0 2
117 15 5 -0.008385 1.6775623050128432 0.317656992088881 8.960913051712065 -1 3 -2
1895 237 6 0.19089 10.538637173996454 0.6395795113133739 0.5902450974970624 -2 -1 -2
742 93 6 0.19089 14.065734912016843 9.829834981346716 9.101164605665758 4 -1 1
2652 332 4 -0.488411 6.498582864230247 9.035327482420078 4.35987973792659 -1 -4 -1
670 84 6 0.19089 0.4249499246653243 10.449293430441802 4.054727140550677 -3 3 -2
2693 337 5 -0.008385 9.439789463317338 9.126515277774365 3.992135258333968 -2 1 3
1432 179 6 0.1559 0.24710894860444643 12.360194755738643 10.566232884933004 2 1 1
672 84 6 0.1559 2.5055632470659526 12.206501224324985 2.509227146221187 -3 3 -2
2690 337 2 -0.169515 10.388423507688534 11.08035158111714 4.506207448889183 -2 1 3
665 84 1 -0.38353 1.1179694445949533 11.274805592576124 3.8507343592929653 -3 3 -2
1927 241 6 0.19089 7.251405498016243 8.810248816607276 7.3585743202099465 5 -1 0
2532 317 4 -0.488411 14.771098938041815 1.3202463186481348 3.285740948673494 4 -2 -1
424 53 6 0.1559 5.83643994621183 3.4587126853464385 5.166236560050684 -1 4 2
2541 318 5 -0.008385 9.217629536874895 3.6134368003671127 3.539972919330089 -2 5 1
3009 377 1 -0.38353 12.905923930560391 6.973929753855668 6.210272347405706 1 -2 -1
1925 241 5 -0.008385 8.255425581861841 12.42391117440747 7.859014928567542 5 -1 0
418 53 2 -0.169515 5.48835786249726 2.488519459898602 5.275317974103311 -1 4 2
1083 136 3 0.512161 14.607350658946926 5.796990533764138 0.89995655143088 1 1 0
1531 192 3 0.512161 5.690238371955245 6.031855525375764 8.110026952736494 2 -1 -1
1350 169 6 0.19089 10.966625123811099 9.721671613315907 1.1483525329668718 -4 0 2
3873 485 1 -0.38353 11.055181773742767 6.984788371751451 9.489704029776489 0 -2 0
3951 494 6 0.19089 9.57039251930733 3.346188732991131 6.211069251424467 1 0 2
2540 318 4 -0.488411 7.4870248014336145 3.8266380803700835 2.593110075453161 -2 5 1
669 84 5 -0.008385 1.5753001114136094 9.196765107124639 2.1143790632791513 -3 3 -2
2539 318 3 0.512161 8.413715347436069 3.1843783127624348 3.012768146193198 -2 5 1
1346 169 2 -0.169515 13.036190160806822 10.158417447848125 1.1034556533927236 -4 0 2
668 84 4 -0.488411 2.730604208388499 10.237946761176275 0.8759203300664306 -3 3 -2
3948 494 4 -0.488411 9.778549145733296 7.739148065813289 6.882950034405326 1 0 2
443 56 3 0.512161 2.427791216227037 6.334937810995723 2.1870195682024156 0 0 0
1496 187 6 0.1559 8.96647426496916 8.04731718300967 1.5014894956088851 -8 -4 0
1349 169 5 -0.008385 11.95715166452705 11.876257616749683 2.016612620573191 -4 0 2
2733 342 5 -0.008385 14.29732946413483 10.74870320628064 4.2350774440636485 0 0 0
3838 480 6 0.19089 5.700899280871666 3.407866455046676 10.936123152579462 1 2 1
1926 241 6 0.19089 7.217022409837262 10.415896288722385 6.63009580024614 5 -1 0
1267 159 3 0.512161 12.739016361072943 2.5612046986411263 6.537957066250962 0 1 2
3835 480 3 0.512161 8.250722432968189 3.479538579672656 10.025151446386026 1 2 1
1923 241 3 0.512161 8.640005494689909 11.660375024390714 8.622008443920997 5 -1 0
2651 332 3 0.512161 5.94025115333509 8.969669320505767 3.252230002362278 -1 -4 -1
1430 179 6 0.19089 1.521793323017037 11.965008945128899 7.737121260295268 2 1 1
46 6 6 0.19089 7.733456276175114 1.1943734669504094 8.87830791386222 2 2 -1
3950 494 6 0.19089 8.302951264163895 4.53755077753183 5.520379587186316 1 0 2
2240 280 6 0.1559 5.257456913567088 9.476470807608845 10.8008020965386 -3 -1 1
444 56 4 -0.488411 2.0767154083238046 6.8948285449963995 3.2255293656724104 0 0 0
3015 377 6 0.19089 12.051316161573656 6.48878961597639 5.7966043771133995 1 -2 -1
3952 494 6 0.1559 10.736532110691076 5.291297688846082 7.213258027134675 1 0 2
1270 159 6 0.19089 14.82309414746855 3.3164606745480243 8.226545778786832 0 1 2
3676 460 4 -0.488411 2.244297371066898 7.571034520617014 9.423903264791702 0 0 0
1535 192 6 0.19089 3.5597696134576253 5.989430571066743 5.321437405252684 2 -1 -1
1214 152 6 0.19089 11.700596658567077 0.3375462743283955 8.7812463039541 -1 -1 -2
3016 377 6 0.1559 14.239246584033948 5.383056791850562 5.703044626382909 1 -2 -1
1530 192 2 -0.169515 5.081428288953748 6.381345687493847 6.786083064116906 2 -1 -1
1921 241 1 -0.38353 7.564406119307042 9.785247914517619 7.42106064830821 5 -1 0
2529 317 1 -0.38353 12.888904023745187 4.344369389124849 3.457550002290482 4 -2 -1
445 56 5 -0.008385 2.6861466058485135 6.914546572581035 1.2887383002465456 0 0 0
3010 377 2 -0.169515 14.118419237256335 6.317221476531733 6.233248730540689 1 -2 -1
1922 241 2 -0.169515 8.271150074102408 10.204739282545793 8.454577895622087 5 -1 0
2654 332 6 0.19089 4.945732291466865 8.23774444590782 0.7739404585781768 -1 -4 -1
1490 187 2 -0.169515 9.331724069180222 7.196837308902028 0.9404799793391079 -8 -4 0
860 108 4 -0.488411 1.5496441977208508 2.4009294215410164 4.493475757581723 2 2 2
1529 192 1 -0.38353 4.091600305802686 5.639684392109263 6.225592658506639 2 -1 -1
1095 137 6 0.19089 2.3167378200492363 4.592551620945616 10.025878823881449 1 -2 3
419 53 3 0.512161 5.600061330220889 1.9215342054517586 6.648799903471878 -1 4 2
417 53 1 -0.38353 4.863827043383783 1.8995593640694786 4.216207121824429 -1 4 2
738 93 2 -0.169515 13.038892383293362 11.459275748238827 9.971656030158952 4 -1 1
442 56 2 -0.169515 2.47681688067051 4.858020890904056 2.053861990376093 0 0 0
1534 192 6 0.19089 3.7531138267615147 4.711750383696272 6.612785985673788 2 -1 -1
420 53 4 -0.488411 5.993636909153269 2.5115704016604954 7.6279517198865605 -1 4 2
2533 317 5 -0.008385 12.965229184614 1.7941110390603858 2.607518229560858 4 -2 -1
115 15 3 0.512161 2.5618957048026707 1.0239015525648243 9.104242667743911 -1 3 -2
3945 494 1 -0.38353 9.192728973269602 4.365806058640319 6.070912769705219 1 0 2
3069 384 5 -0.008385 6.039278990938912 12.512368053225405 1.150139336591475 0 -2 2
1789 224 5 -0.008385 0.10207608809026282 6.857314467869934 4.836535846963138 0 1 -1
1084 136 4 -0.488411 13.640767507355273 6.450464148495869 0.5238633986389378 1 1 0
2542 318 6 0.19089 10.237513366735362 1.3749025235862034 3.9832895504368704 -2 5 1
3679 460 6 0.19089 2.83508260619252 9.749472113951912 5.437617934320506 0 0 0
3070 384 6 0.19089 7.431272438773431 10.595114708964022 0.6966861780083047 0 -2 2
2655 332 6 0.19089 5.940691291457224 6.654927935470457 0.5980579137064018 -1 -4 -1
1492 187 4 -0.488411 10.56221074964161 6.480996508599798 2.8339689650837947 -8 -4 0
2653 332 5 -0.008385 5.0530177004828705 9.632315544563584 2.942699963768927 -1 -4 -1
2534 317 6 0.19089 11.972346902875216 3.9305565991883444 2.9692058693525336 4 -2 -1
1533 192 5 -0.008385 5.336745490939765 5.116176489561451 8.540309098194694 2 -1 -1
441 56 1 -0.38353 2.6490503401900964 4.2148532064213455 0.8731409130218931 0 0 0
3204 401 4 -0.488411 2.9070133962447366 0.7313561374004617 1.0275229647128015 1 -2 3
2692 337 4 -0.488411 8.924464076223225 10.60024601860308 2.7526366229075436 -2 1 3
2649 332 1 -0.38353 5.743662559044476 7.565166515341099 1.1438172435263387 -1 -4 -1
3709 464 5 -0.008385 5.332281228174352 12.218264892460223 3.7408292704017008 -1 0 2
3836 480 4 -0.488411 9.468713020821921 3.441200233869736 9.817653618622867 1 2 1
2530 317 2 -0.169515 13.936977379738396 3.5288161518381305 3.5481012490713826 4 -2 -1
41 6 1 -0.38353 7.76436382684379 0.1465886219736259 9.084696789126257 2 2 -1
1347 169 3 0.512161 12.951690729095166 11.507146666218055 1.727864280703472 -4 0 2
862 108 6 0.19089 1.0358613705679078 4.300682112069961 7.770788393243387 2 2 2
861 108 5 -0.008385 2.1766982717849754 2.7034577713683916 6.349445401004854 2 2 2
2691 337 3 0.512161 9.519776633367204 10.228212503252148 3.7553459939790867 -2 1 3
447 56 6 0.19089 2.645015282949321 3.1237121161920127 0.8322026041498224 0 0 0
3947 494 3 0.512161 9.263538792122867 6.733761859313092 6.489230793929157 1 0 2
3673 460 1 -0.38353 3.1360308626135773 9.437735669869477 6.452363929871659 0 0 0
3014 377 6 0.19089 12.762095197185783 7.952481395643161 6.691036573927976 1 -2 -1
2656 332 6 0.1559 6.963278712149791 7.0518522028810535 2.888290780719287 -1 -4 -1
3877 485 5 -0.008385 13.846120834517212 7.339752255487982 9.682455747717874 0 -2 0
1536 192 6 0.1559 5.465921542830618 7.265547247992502 6.343640783838649 2 -1 -1
1491 187 3 0.512161 10.232908746138154 6.278756044114447 1.666532143338105 -8 -4 0
2696 337 6 0.1559 10.486037498744967 12.140334245911506 4.193251491329787 -2 1 3
2689 337 1 -0.38353 11.008822618960448 10.752918064459667 5.64121603398749 -2 1 3
744 93 6 0.1559 12.122614356993775 12.026340901983644 10.034713577477467 4 -1 1
3946 494 2 -0.169515 9.793162609443796 5.377163838579586 6.655015721012954 1 0 2
3875 485 3 0.512161 13.502173284731773 6.308003139864563 9.804715603830948 0 -2 0
2239 280 6 0.19089 4.316640226832804 7.161358206818728 10.914347256857976 -3 -1 1
3837 480 5 -0.008385 7.491795000741101 3.991184296699849 9.44754729337577 1 2 1
116 15 4 -0.488411 2.405495954897044 2.1997982371511857 8.928676059372266 -1 3 -2
448 56 6 0.1559 2.225463414176548 4.317615936233016 2.944080412689916 0 0 0
1266 159 2 -0.169515 14.051356574620907 1.9012352796885759 6.883435211781679 0 1 2
3879 485 6 0.19089 9.994716764102131 6.648992868755682 9.464658914465412 0 -2 0
3680 460 6 0.1559 1.6743104980724313 7.924650883038483 6.703949453683589 0 0 0
1493 187 5 -0.008385 10.671111889209216 5.420498558615424 1.0843005100637428 -8 -4 0
667 84 3 0.512161 2.109361182060571 10.17136551601518 1.8702786669113136 -3 3 -2
2694 337 6 0.19089 10.943300979250694 9.772519809106203 6.130748021677265 -2 1 3
2537 318 1 -0.38353 9.50612530347584 0.9596685539024588 3.2975871027688255 -2 5 1
422 53 6 0.19089 4.456136334172364 0.8762920609945785 4.2430504119704535 -1 4 2
857 108 1 -0.38353 0.3597321089699187 4.589116659630752 7.026510234247565 2 2 2
421 53 5 -0.008385 5.313055103636081 0.8922368910874958 6.784668509588801 -1 4 2
3677 460 5 -0.008385 3.597604743813507 8.946967315646827 9.050701716844907 0 0 0
1431 179 6 0.19089 0.18245317716019632 10.88260365188651 8.57741581075821 2 1 1
666 84 2 -0.169515 1.8841665719877385 11.331874974401288 2.7410003231462237 -3 3 -2
1085 136 5 -0.008385 15.00788676367134 4.9454911728962445 0.3039836713853392 1 1 0
2650 332 2 -0.169515 6.302836967503062 7.7898436483480795 2.3797834533706554 -1 -4 -1
1426 179 2 -0.169515 0.8773362499461701 12.547790190355926 9.670135711853337 2 1 1
671 84 6 0.19089 0.9843422647460689 12.134375604708952 4.430331015325814 -3 3 -2
3949 494 5 -0.008385 8.42993461483716 6.792766172202834 5.823810215148335 1 0 2
1345 169 1 -0.38353 11.950819076914732 9.43669628268834 0.7494971332998274 -4 0 2
2535 317 6 0.19089 12.880555618085934 5.337940701665155 3.9291814700603127 4 -2 -1
1532 192 4 -0.488411 6.601363302835471 6.641086341588391 8.538421807862 2 -1 -1
3874 485 2 -0.169515 12.036166670765516 6.0528621932780435 9.65023897763473 0 -2 0
1268 159 4 -0.488411 11.79080899604129 1.977347038407856 6.031791992118796 0 1 2
3675 460 3 0.512161 2.826513901139481 8.263633970684548 8.651231821301842 0 0 0
120 15 6 0.1559 4.638974154161351 1.1111259229589436 9.696391360618563 -1 3 -2
3880 485 6 0.1559 11.709702902860679 5.071336535726781 9.737637650527713 0 -2 0
2538 318 2 -0.169515 8.498792424272175 1.700153555039942 2.789643360327323 -2 5 1
3678 460 6 0.19089 3.936897603193334 9.954287444604928 6.906568053511165 0 0 0
3674 460 2 -0.169515 2.466854771228108 8.504083959443918 7.199493511811434 0 0 0
2544 318 6 0.1559 7.68050319494572 1.2399191099189353 2.1639583809395404 -2 5 1
737 93 1 -0.38353 13.175287207768786 10.415309836544864 9.117310274267364 4 -1 1
743 93 6 0.19089 12.420234227269766 10.076418826735607 8.47556306073215 4 -1 1
3878 485 6 0.19089 11.309771936022305 8.055248388943598 9.508376612674267 0 -2 0
3876 485 4 -0.488411 14.389982300283842 5.455771011403764 9.883861363717942 0 -2 0
1269 159 5 -0.008385 12.695681391539576 3.656070640032695 6.883499604130862 0 1 2
1351 169 6 0.19089 12.026095970071518 8.477442134751358 0.17279937421203065 -4 0 2
12 2 4 -0.488411 4.09229386202979 11.653523194835394 10.011985738502172 0 2 2
2695 337 6 0.19089 11.58999629587106 11.41645135518582 6.238166101851728 -2 1 3
1928 241 6 0.1559 8.535204064769577 9.54794541461513 9.288347215791319 5 -1 0
423 53 6 0.19089 4.737198127288739 2.4789983426785973 3.2970889208540757 -1 4 2
1924 241 4 -0.488411 9.226396961449273 12.008475688700939 9.62956084644573 5 -1 0
166 21 6 0.19089 13.454847096416609 2.88041198324484 10.658154397345564 -4 1 0
11 2 3 0.512161 5.109679796296134 12.330165119348274 10.220784315976685 0 2 2
161 21 1 -0.38353 13.060169083473475 1.9135623044747847 10.761805724082068 -4 1 0
114 15 2 -0.169515 3.823154749736344 0.42529878952431943 9.532635676848406 -1 3 -2
1272 159 6 0.1559 14.3047391048838 0.9431314199057801 6.44928886670536 0 1 2
2731 342 3 0.512161 14.53464672098608 10.863809080798788 5.345575625219543 0 0 0
739 93 3 0.512161 14.097370468478891 11.877646378711942 10.903376920425094 4 -1 1
859 108 3 0.512161 1.4096389422997269 2.916467201004135 5.574235512813384 2 2 2
2536 317 6 0.1559 14.890629428324576 3.7802844564872236 4.019826972643231 4 -2 -1
45 6 5 -0.008385 8.438611800861045 0.7661773214271018 6.579259664376558 2 2 -1
2732 342 4 -0.488411 14.131578471588037 10.07093293253507 6.16156084908597 0 0 0
1471 184 6 0.19089 10.513475045043126 9.838095589427391 10.856098310664658 -4 0 0
3067 384 3 0.512161 5.259099846548252 12.180684161009241 0.4324000174513524 0 -2 2
1348 169 4 -0.488411 13.914422191191209 12.172024008427593 2.0002582131801554 -4 0 2
2364 296 4 -0.488411 0.31255557561722286 6.397331909404675 0.22853219056762183 0 0 1
1265 159 1 -0.38353 14.927189268447716 2.4564955822024874 7.750659423049861 0 1 2
2462 308 6 0.19089 0.16650199488122872 7.069984891341672 10.863924436590352 -1 -2 -2
3707 464 3 0.512161 5.476849938839051 12.583111750181788 4.751347654691417 -1 0 2
3708 464 4 -0.488411 4.541672613915665 12.549780214097165 5.517994573844879 -1 0 2
3205 401 5 -0.008385 0.971952192553463 0.03575982819839612 1.0460064590264107 1 -2 3
3834 480 2 -0.169515 7.632349443106671 2.60973356213536 11.034202925414247 1 2 1
1119 140 6 0.19089 2.2569536424259447 3.6892385256686615 16.205114947393458 -4 2 1
1227 154 3 0.512161 12.648831009480709 4.3772954912358975 15.594411274158722 -7 1 3
791 99 6 0.19089 1.1908685541525796 5.907363053488043 20.394368984100286 3 2 -1
1232 154 6 0.1559 13.7217732139948 5.3855233937176195 17.131100876442506 -7 1 3
3036 380 4 -0.488411 8.350116984737376 6.9150199557729914 17.969629163180223 2 -3 1
3038 380 6 0.19089 9.27057749308981 10.271602946660693 16.079031189540128 2 -3 1
1467 184 3 0.512161 11.183664957641271 8.970629314021046 14.182608481602577 -4 0 0
4071 509 6 0.19089 1.4777837542022414 9.610544382814549 11.097521088017153 4 3 2
2122 266 2 -0.169515 14.494622649770054 8.04436832379549 13.037089038905057 -1 4 0
3653 457 5 -0.008385 1.5328772701760873 11.141512400641053 21.69952144884091 5 2 0
3227 404 3 0.512161 13.200009313759251 11.361721497918557 20.770835617456466 -1 2 0
603 76 3 0.512161 8.640590836883934 12.137456828955969 18.365541515652712 2 -2 -1
2117 265 5 -0.008385 9.608068154201359 4.8987613569205735 14.052218093474536 -3 -3 2
1113 140 1 -0.38353 1.324390613174934 3.2785311044936423 15.737761253322535 -4 2 1
2723 341 3 0.512161 3.1086556954550693 9.531374015157416 17.482742199879834 -2 -1 0
2384 298 6 0.1559 14.06114621541565 7.339124761777211 19.313401065227392 -1 1 0
790 99 6 0.19089 0.5322814780255344 7.599140406747099 20.484021274440284 3 2 -1
4072 509 6 0.1559 2.2957274288579708 7.889536082547481 12.605680767102935 4 3 2
2118 265 6 0.19089 8.401100129408904 2.9683425333318914 14.441256650541677 -3 -3 2
4067 509 3 0.512161 3.363323841230866 9.185700828496374 13.953477505410643 4 3 2
1664 208 6 0.1559 3.660548995655671 4.477513927597253 18.533490492221816 -1 0 -1
3261 408 5 -0.008385 3.074230660114956 1.7350127924553704 20.256920088960303 -3 1 2
168 21 6 0.1559 11.62056556424504 0.6237297856114701 11.662635900729216 -4 1 0
2722 341 2 -0.169515 4.594868793973337 9.446113506750448 17.733724200301765 -2 -1 0
3054 382 6 0.19089 13.442400072688788 5.527610483208756 21.274643849127358 3 4 -1
1663 208 6 0.19089 5.871230859131107 3.1947854769454374 19.002789990160974 -1 0 -1
2238 280 6 0.19089 5.5759472101502165 6.760698652868588 12.236372691171919 -3 -1 1
1003 126 3 0.512161 6.476200505356796 0.5433032857284225 17.032784019059374 7 -5 0
2237 280 5 -0.008385 7.191797107727202 8.676022464596123 13.198375560405559 -3 -1 1
4015 502 6 0.19089 6.624074246796261 6.028286689938393 20.200024765914364 -1 -1 2
2727 341 6 0.19089 6.155909748547031 8.613796383258643 18.930461811714043 -2 -1 0
2381 298 5 -0.008385 12.84050887304431 9.132934075501588 17.204879675120175 -1 1 0
310 39 6 0.19089 4.7016193483285065 0.11629081463537226 13.892119268573179 2 -4 1
1659 208 3 0.512161 4.480399701922377 5.551345394651598 16.849511188792913 -1 0 -1
2383 298 6 0.19089 11.930991530663539 6.094012584049449 19.23014386802783 -1 1 0
3273 410 1 -0.38353 13.803155024967692 12.16257713007306 15.117871077736353 0 2 1
1007 126 6 0.19089 3.1015805991472476 0.21157886335722748 16.501867120855643 7 -5 0
1107 139 3 0.512161 9.58813046735519 3.633532680563651 19.783821253062968 1 -3 -1
1120 140 6 0.1559 0.7639598732050633 5.0218720215620865 14.586682126240193 -4 2 1
830 104 6 0.19089 1.2021537049715385 7.081996761962658 16.668408957068852 2 -1 0
775 97 6 0.19089 8.854405026958965 12.55501517907249 14.997426354214717 -1 -1 -2
3226 404 2 -0.169515 12.130876403109532 10.795673957193705 21.608536771727575 -1 2 0
2380 298 4 -0.488411 14.64724257694504 9.47211836645863 18.080053019169913 -1 1 0
785 99 1 -0.38353 0.3637291071014916 6.545500289438691 20.57706607271493 3 2 -1
162 21 2 -0.169515 12.0389062593114 1.6394643167169307 11.632386864690343 -4 1 0
4016 502 6 0.1559 6.027620489820737 4.097939327763523 21.566567840562797 -1 -1 2
1905 239 1 -0.38353 1.244069121474915 0.28299046561182234 12.591607136952037 1 1 2
1365 171 5 -0.008385 12.752968301864492 0.4782288362187089 19.670175027500154 1 2 0
2379 298 3 0.512161 13.604862632466647 8.86118292153469 17.922989640573206 -1 1 0
1004 126 4 -0.488411 7.3300182636682125 1.4078780055135591 16.987389335257053 7 -5 0
164 21 4 -0.488411 10.479278989430696 2.330235599484749 13.292049634019236 -4 1 0
1466 184 2 -0.169515 11.133151248647387 9.695527487884437 12.865226188315066 -4 0 0
2726 341 6 0.19089 4.443926983217769 8.186556273829886 19.5110250280924 -2 -1 0
1093 137 5 -0.008385 3.114668007403526 4.775503259984886 13.696733548430652 1 -2 3
2721 341 1 -0.38353 5.121024895285117 8.689325873342032 18.74766483344716 -2 -1 0
2101 263 5 -0.008385 7.529310671823833 1.045979936352957 21.062146770907635 -3 0 2
4066 509 2 -0.169515 2.493477785540562 8.916448483604308 12.792663958882391 4 3 2
2236 280 4 -0.488411 7.1796150211533245 10.40454864595402 12.217656375255794 -3 -1 1
1229 154 5 -0.008385 12.391630170528929 3.357336211325669 15.145674718555286 -7 1 3
3033 380 1 -0.38353 8.350533891337392 9.746199112881415 15.724333525800102 2 -3 1
1002 126 2 -0.169515 5.0986361187456435 0.8870665674127679 16.77798959028066 7 -5 0
604 76 4 -0.488411 9.312070868162007 11.18546728568411 18.68066620067745 2 -2 -1
2233 280 1 -0.38353 5.182791528582752 7.452343307829101 11.519612308112263 -3 -1 1
1231 154 6 0.19089 14.706369599384804 3.3625059640842383 18.210507630147614 -7 1 3
2128 266 6 0.1559 13.990495603648942 7.284481424405023 12.454850351464263 -1 4 0
2235 280 3 0.512161 6.746936516318598 9.280201395265964 12.369559945016066 -3 -1 1
1111 139 6 0.19089 10.104667726162234 3.0991766418442332 16.39083405257945 1 -3 -1
1468 184 4 -0.488411 11.800970402583495 9.296572990214836 15.172342894419481 -4 0 0
1118 140 6 0.19089 1.134509295524232 2.258986001604242 15.920201722282808 -4 2 1
3230 404 6 0.19089 11.087740487981062 9.792774232982394 19.98030555951525 -1 2 0
605 76 5 -0.008385 7.533696736992353 12.034966076901657 18.183816539983493 2 -2 -1
4069 509 5 -0.008385 3.6684960318563347 10.243570200716345 13.96828125379484 4 3 2
1470 184 6 0.19089 9.90596220984342 8.368819294547169 11.820019517533659 -4 0 0
1472 184 6 0.1559 11.742968702357599 10.565068684029299 12.821061304102821 -4 0 0
3833 480 1 -0.38353 6.323023950567193 2.655887118015752 11.37722953196558 1 2 1
1182 148 6 0.19089 0.773446906891445 11.102751146523355 18.28816998906184 0 -2 -1
1114 140 2 -0.169515 0.539911982866931 3.990296927657362 14.901921809007481 -4 2 1
1657 208 1 -0.38353 5.730417286185271 3.935663243227026 18.23443520238173 -1 0 -1
2115 265 3 0.512161 8.664461830427083 5.433727312490126 13.802023387121265 -3 -3 2
1094 137 6 0.19089 2.0726703799617283 5.624919150167256 11.570124846397047 1 -2 3
1228 154 4 -0.488411 12.257990012655393 5.386028438811161 15.054132902110073 -7 1 3
2127 266 6 0.19089 13.806444211081484 7.31058098953981 14.929994346036194 -1 4 0
3229 404 5 -0.008385 12.98122131817092 11.16620051556715 19.676959577921604 -1 2 0
2126 266 6 0.19089 15.058357612053337 8.707352922436648 14.948669984804697 -1 4 0
3231 404 6 0.19089 10.377878480946165 9.573302295906947 21.624729483691056 -1 2 0
3035 380 3 0.512161 8.59966979934678 8.04300121443777 17.54252284674585 2 -3 1
2234 280 2 -0.169515 5.6940471683583045 8.712753436106139 11.496526855845481 -3 -1 1
1225 154 1 -0.38353 14.060875562165723 3.268837441851404 17.369379995823795 -7 1 3
1090 137 2 -0.169515 3.086965796000467 3.7257031367375193 11.825772477981136 1 -2 3
4065 509 1 -0.38353 2.0285251781874694 9.894670626844768 11.983038292479675 4 3 2
2378 298 2 -0.169515 13.249272377541619 7.747798326580679 18.79003574436556 -1 1 0
1092 137 4 -0.488411 3.8120567404444103 2.8689393183090384 13.870817924419569 1 -2 3
1660 208 4 -0.488411 3.387753569134934 6.007708752183385 16.552692475459583 -1 0 -1
2724 341 4 -0.488411 2.672467101851492 10.27019712477572 16.676574690462495 -2 -1 0
2382 298 6 0.19089 11.25223902367088 7.355947290115772 18.11168312924378 -1 1 0
1465 184 1 -0.38353 10.502331487552555 9.27419038739912 11.771143191532758 -4 0 0
3039 380 6 0.19089 7.941617377781626 10.056021714694763 14.802415123736575 2 -3 1
2120 265 6 0.1559 6.464884746137972 5.15667018888272 13.911220434626683 -3 -3 2
1363 171 3 0.512161 13.753217221163546 0.660582304405817 20.09964460096598 1 2 0
2114 265 2 -0.169515 7.400747344890892 4.643569404949317 14.02546683746867 -3 -3 2
4009 502 1 -0.38353 7.275245093798916 5.713069956490544 21.02414587663838 -1 -1 2
2728 341 6 0.1559 5.122630548833352 9.994650556017305 17.014634274422466 -2 -1 0
3652 457 4 -0.488411 2.1639623439115963 9.907037825859916 20.3154777975604 5 2 0
2119 265 6 0.19089 6.500391695540461 2.836688192808095 14.767651544464082 -3 -3 2
3034 380 2 -0.169515 7.960997184936867 8.605527037897362 16.346808316506177 2 -3 1
1105 139 1 -0.38353 10.104495433780357 3.645506041953717 17.322923635159945 1 -3 -1
2121 266 1 -0.38353 14.421429276582984 8.05933448953961 14.400947541735507 -1 4 0
163 21 3 0.512161 11.397618708137177 2.62984880142754 12.56270731471871 -4 1 0
2725 341 5 -0.008385 2.4428289049104115 8.841228480063734 18.0685520709248 -2 -1 0
1658 208 2 -0.169515 4.606472558797514 4.5894337860049745 17.956155805349592 -1 0 -1
3037 380 5 -0.008385 9.425378521624845 8.62175246277116 17.983241580205323 2 -3 1
2377 298 1 -0.38353 12.092580333196228 7.011852690694975 18.68258772525369 -1 1 0
1662 208 6 0.19089 6.5854895058287255 4.049630560273242 17.610264763062833 -1 0 -1
829 104 5 -0.008385 0.5820989331923124 8.965516772197562 15.106570866725555 2 -1 0
1089 137 1 -0.38353 2.468196364630987 4.682821695476008 11.105440403327995 1 -2 3
1096 137 6 0.1559 3.4434955446673023 2.842339604106765 11.381480520047901 1 -2 3
3279 410 6 0.19089 13.909984739603447 11.149841814700673 15.42384411050434 0 2 1
1106 139 2 -0.169515 9.730786156636901 2.9910805120777684 18.44906223631918 1 -3 -1
1008 126 6 0.1559 4.931159225356981 1.921620532415265 16.650107749063064 7 -5 0
3293 412 5 -0.008385 5.074166000795891 12.253572064062132 14.198329034662583 2 -3 -2
2099 263 3 0.512161 6.453866247438108 0.8415456506307006 20.791458645300555 -3 0 2
740 93 4 -0.488411 13.874962315135754 12.604175029849847 11.820990162745456 4 -1 1
2796 350 4 -0.488411 14.93912126251603 2.224263260285786 13.640180420983098 0 -1 5
3259 408 3 0.512161 2.234197794688365 2.4143545133356348 20.417380752043872 -3 1 2
1911 239 6 0.19089 1.892729800006814 0.8146088290100922 13.266700437632577 1 1 2
1906 239 2 -0.169515 0.3865200217981167 0.8597948363581124 11.743117020730438 1 1 2
2113 265 1 -0.38353 7.402990839464678 3.3938281365010954 14.518818083376944 -3 -3 2
2100 263 4 -0.488411 5.577078325765932 1.6179134232926977 21.08474462014778 -3 0 2
3133 392 5 -0.008385 1.0709925894391294 11.451114769359263 14.452647141289033 -3 3 0
1469 184 5 -0.008385 10.524714635115954 8.06678990980051 14.20969140806064 -4 0 0
3278 410 6 0.19089 14.150660888278733 12.32307289948607 14.05459794259043 0 2 1
1109 139 5 -0.008385 9.715913960181906 4.747510414987672 19.749683103264037 1 -3 -1
3260 408 4 -0.488411 1.5700803280609716 2.9221569330532366 19.5252901479087 -3 1 2
165 21 5 -0.008385 11.77717759220293 3.634929516375599 12.521737085094149 -4 1 0
4068 509 4 -0.488411 3.9078859222360376 8.345996404977466 14.60739278035649 4 3 2
4014 502 6 0.19089 8.151615957835505 6.317177890331899 21.236809365015223 -1 -1 2
1110 139 6 0.19089 10.290245627470345 4.714144188825191 17.312466882088547 1 -3 -1
3055 382 6 0.19089 12.92484986127708 3.7005017399975517 21.220722674426213 3 4 -1
3040 380 6 0.1559 7.195753015056652 7.936068881401162 15.972940832700301 2 -3 1
1661 208 5 -0.008385 5.3669837164327605 5.735695421757692 16.260226505433018 -1 0 -1
1364 171 4 -0.488411 14.01893864113686 1.7184367093055868 20.586039980363356 1 2 0
1112 139 6 0.1559 9.570857958584677 1.885415462811003 18.40521344304522 1 -3 -1
2116 265 4 -0.488411 8.650029476943446 6.596747483333727 13.401172081341608 -3 -3 2
1091 137 3 0.512161 3.328995184688193 3.81282007279448 13.274204658082498 1 -2 3
1108 139 4 -0.488411 9.305602836589937 3.0430129258846743 20.82825852722795 1 -3 -1
1230 154 6 0.19089 13.929309417717512 2.2392076895075155 16.984219869841642 -7 1 3
4070 509 6 0.19089 2.182083843709273 10.989050894320572 12.223273659189331 4 3 2
3656 457 6 0.1559 4.453121142718771 9.987032457038195 21.831087789424707 5 2 0
3225 404 1 -0.38353 11.20102573439374 10.027954835709634 21.049397958766143 -1 2 0
1226 154 2 -0.169515 13.4978299639685 4.3785496008066636 16.796518989942065 -7 1 3
3651 457 3 0.512161 2.379604374231923 10.549492010238954 21.34292708819316 5 2 0
3839 480 6 0.19089 5.850848604717659 1.908095802913766 12.019839618314915 1 2 1
3292 412 4 -0.488411 6.440813557715022 12.63863849529531 15.750282964699117 2 -3 -2
1912 239 6 0.1559 0.3021692817981013 1.9456469985439693 11.566361331040621 1 1 2
4010 502 2 -0.169515 6.918652942144349 4.66385205938363 21.833446126724397 -1 -1 2
3131 392 3 0.512161 1.3922396716844863 12.476290388607758 14.198530809903321 -3 3 0
3840 480 6 0.1559 8.322115057585941 1.8748172920801003 11.50211188475361 1 2 1
3258 408 2 -0.169515 2.0720178766781694 2.828903117264118 21.890808396727227 -3 1 2
3228 404 4 -0.488411 14.152087292993128 12.04518716793498 21.140417735028493 -1 2 0
3049 382 1 -0.38353 12.671733669090402 4.742778919792518 21.495893465097996 3 4 -1
430 54 6 0.19089 10.831833906590077 0.05292944409536859 13.985325351899087 -1 -1 -2
825 104 1 -0.38353 0.1319075394727598 6.87321198733357 16.864498701430538 2 -1 0
13 2 5 -0.008385 5.630884575538048 12.289701946263792 11.180067337623738 0 2 2
1630 204 6 0.19089 11.879256411970127 0.5298407604546772 21.76956692422421 7 2 -2
2252 282 4 -0.488411 14.188420627740642 8.699221431937175 21.819974257087758 4 6 1
774 97 6 0.19089 10.732496762355643 12.584845557146764 14.899441754694216 -1 -1 -2
3264 408 6 0.1559 1.306287511135652 3.495155569686748 22.08708639767769 -3 1 2
3632 454 6 0.1559 8.229543998120215 6.111771168499636 27.90760352093527 -4 4 2
2563 321 3 0.512161 7.086984695125584 10.438146806224868 27.77033729281398 -1 3 -1
635 80 3 0.512161 11.85507542501591 5.875323556958431 29.326044756491992 -2 3 -4
3262 408 6 0.19089 3.5785722242852085 1.5167378434489156 22.706213318796664 -3 1 2
811 102 3 0.512161 10.484410299058304 1.5474997797794674 28.11486068548616 1 2 -3
895 112 6 0.19089 0.28743619400831205 8.49075124271731 28.038042390880392 -2 0 0
3053 382 5 -0.008385 11.817207420214496 7.265486215304513 22.1259308343037 3 4 -1
1754 220 2 -0.169515 0.875217635233321 11.644667031220342 26.54565513619237 1 0 0
2898 363 2 -0.169515 8.875586812887672 6.254279004647767 32.55661106569339 1 -1 0
3862 483 6 0.19089 6.032461259524847 8.110055635483477 30.043214779974367 3 2 4
3051 382 3 0.512161 11.213891898578593 6.46295250640166 22.58950419275546 3 4 -1
639 80 6 0.19089 13.766828536229879 3.6742433684233453 31.204537175949618 -2 3 -4