variable        infile index box.lmp
variable        mytemp index 120.0
variable        pressure index 1.0
variable        seed index 242321
variable	 dt index 1.0

units           real
special_bonds   lj 0.0 0.0 0.5 coul 0.0 0.0 0.8333
#neighbor        2.0 bin
#neigh_modify    delay 0 every 1 check yes page 1000000 one 20000
atom_style      full
pair_style	 lj/cut/coul/long 12.0

bond_style	 harmonic
dihedral_style	 charmm
angle_style	 harmonic
improper_style	 cvff

read_data       ${infile}
read_data       box.lmp
Reading data file ...
  triclinic box = (-3.4849999 -4.7570000 -4.8759999) to (3.4849999 4.7570000 4.8759999) with tilt (0.0000000 0.0000000 0.0000000)
  2 by 3 by 4 MPI processor grid
  reading atoms ...
  64 atoms
  scanning bonds ...
  3 = max bonds/atom
  scanning angles ...
  3 = max angles/atom
  scanning dihedrals ...
  4 = max dihedrals/atom
  scanning impropers ...
  1 = max impropers/atom
  reading bonds ...
  56 bonds
  reading angles ...
  72 angles
  reading dihedrals ...
  64 dihedrals
  reading impropers ...
  24 impropers
Finding 1-2 1-3 1-4 neighbors ...
  special bond factors lj:    0        0        0.5     
  special bond factors coul:  0        0        0.8333  
     3 = max # of 1-2 neighbors
     4 = max # of 1-3 neighbors
     6 = max # of 1-4 neighbors
     7 = max # of special neighbors
  special bonds CPU = 0.059 seconds
  read_data CPU = 0.224 seconds

kspace_style    pppm 1E-4
kspace_modify   mesh 32 32 32
pair_modify     mix arithmetic tail yes

timestep        ${dt}
timestep        1.0

minimize       1.0e-4 1.0e-6 100 1000
WARNING: Using 'neigh_modify every 1 delay 0 check yes' setting during minimization (../min.cpp:188)
PPPM initialization ...
  using 12-bit tables for long-range coulomb (../kspace.cpp:340)
  G vector (1/distance) = 0.30503442
  grid = 32 32 32
  stencil order = 5
  estimated absolute RMS force accuracy = 1.0237895e-05
  estimated relative force accuracy = 3.0831117e-08
  using double precision KISS FFT
  3d grid and FFT values/proc = 13547 2048
Neighbor list info ...
  update every 1 steps, delay 0 steps, check yes
  max neighbors/atom: 2000, page size: 100000
  master list distance cutoff = 14
  ghost atom cutoff = 14
  binsize = 7, bins = 1 2 2
  1 neighbor lists, perpetual/occasional/extra = 1 0 0
  (1) pair lj/cut/coul/long, perpetual
      attributes: half, newton on
      pair build: half/bin/newton/tri
      stencil: half/bin/3d/tri
      bin: standard
WARNING: Bond/angle/dihedral extent > half of periodic box length (../domain.cpp:935)
Per MPI rank memory allocation (min/avg/max) = 11.33 | 11.53 | 12.07 Mbytes
Step Temp E_pair E_mol TotEng Press 
       0            0    47.397747    203.81872    251.21646    146429.32 
      53            0    31.090265    2.6803248     33.77059   -603.81557 
WARNING: Bond/angle/dihedral extent > half of periodic box length (../domain.cpp:935)
Loop time of 0.159712 on 24 procs for 53 steps with 64 atoms

97.4% CPU use with 24 MPI tasks x no OpenMP threads

Minimization stats:
  Stopping criterion = energy tolerance
  Energy initial, next-to-last, final = 
      251.216462542369   33.7725510093185    33.770589734662
  Force two-norm initial, final = 538.06155 2.4179016
  Force max component initial, final = 75.321287 0.44822852
  Final line search alpha, max atom move = 0.36828227 0.16507462
  Iterations, force evaluations = 53 106

MPI task timing breakdown:
Section |  min time  |  avg time  |  max time  |%varavg| %total
---------------------------------------------------------------
Pair    | 0.0026571  | 0.0058983  | 0.0086592  |   2.6 |  3.69
Bond    | 0.00011953 | 0.00031173 | 0.00055831 |   0.0 |  0.20
Kspace  | 0.1194     | 0.12272    | 0.12594    |   0.6 | 76.84
Neigh   | 0          | 0          | 0          |   0.0 |  0.00
Comm    | 0.022412   | 0.023128   | 0.023507   |   0.2 | 14.48
Output  | 0          | 0          | 0          |   0.0 |  0.00
Modify  | 0          | 0          | 0          |   0.0 |  0.00
Other   |            | 0.007658   |            |       |  4.79

Nlocal:        2.66667 ave           4 max           1 min
Histogram: 4 0 0 8 0 0 4 0 0 8
Nghost:        2862.33 ave        2896 max        2804 min
Histogram: 4 4 0 0 0 0 0 0 8 8
Neighs:        1517.83 ave        2298 max         560 min
Histogram: 4 0 0 8 0 0 4 0 0 8

Total # of neighbors = 36428
Ave neighs/atom = 569.18750
Ave special neighs/atom = 6.0000000
Neighbor list builds = 0
Dangerous builds = 0

velocity        all create ${mytemp} ${seed}
velocity        all create 120.0 ${seed}
velocity        all create 120.0 242321

replicate       4 4 4
Replicating atoms ...
  triclinic box = (-3.4849999 -4.7570000 -4.8759999) to (24.394999 33.299000 34.132000) with tilt (0.0000000 0.0000000 0.0000000)
  2 by 3 by 4 MPI processor grid
  4096 atoms
  3584 bonds
  4608 angles
  4096 dihedrals
  1536 impropers
Finding 1-2 1-3 1-4 neighbors ...
  special bond factors lj:    0        0        0.5     
  special bond factors coul:  0        0        0.8333  
     3 = max # of 1-2 neighbors
     4 = max # of 1-3 neighbors
     6 = max # of 1-4 neighbors
     7 = max # of special neighbors
  special bonds CPU = 0.001 seconds
  replicate CPU = 0.020 seconds

dump            1 all custom 10000 ${NAME}.lammpstrj id type xu yu zu
dump            1 all custom 10000 ar.120.lammpstrj id type xu yu zu
thermo_style    custom step vol temp press ke pe ebond eangle edihed eimp emol evdwl etail ecoul elong enthalpy density cella cellb cellc cellalpha cellbeta cellgamma
thermo          200

fix             1 all recenter INIT INIT INIT units box

fix             2 all npt temp ${mytemp} ${mytemp} $(100.0*dt) tri ${pressure} ${pressure} $(1000.0*dt)
fix             2 all npt temp 120.0 ${mytemp} $(100.0*dt) tri ${pressure} ${pressure} $(1000.0*dt)
fix             2 all npt temp 120.0 120.0 $(100.0*dt) tri ${pressure} ${pressure} $(1000.0*dt)
fix             2 all npt temp 120.0 120.0 100 tri ${pressure} ${pressure} $(1000.0*dt)
fix             2 all npt temp 120.0 120.0 100 tri 1.0 ${pressure} $(1000.0*dt)
fix             2 all npt temp 120.0 120.0 100 tri 1.0 1.0 $(1000.0*dt)
fix             2 all npt temp 120.0 120.0 100 tri 1.0 1.0 1000

run             2000000
PPPM initialization ...
  using 12-bit tables for long-range coulomb (../kspace.cpp:340)
  G vector (1/distance) = 0.26541774
  grid = 32 32 32
  stencil order = 5
  estimated absolute RMS force accuracy = 0.00031767631
  estimated relative force accuracy = 9.5667276e-07
  using double precision KISS FFT
  3d grid and FFT values/proc = 6210 2048
WARNING: Fix recenter should come after all other integration fixes (../fix_recenter.cpp:133)
Per MPI rank memory allocation (min/avg/max) = 10.79 | 11.08 | 11.26 Mbytes
Step Volume Temp Press KinEng PotEng E_bond E_angle E_dihed E_impro E_mol E_vdwl E_tail E_coul E_long Enthalpy Density Cella Cellb Cellc CellAlpha CellBeta CellGamma 
      53    41387.536    118.15385    989.79074    1442.2351    2161.3386    13.253362    152.29217     5.358682   0.63657094    171.54079   -3680.7323   -93.862435    25372.538   -19702.008    4201.0063    1.1516434    27.879999       38.056    39.007999           90           90           90 
     200    41820.323    75.106843    2316.7604    916.78546    2867.3924    199.76943    394.18776    119.68554    28.712757    742.35549   -3580.3269   -92.891077     25405.64   -19700.277    5197.1852    1.1397254     27.75332    38.540098     39.09884    90.007539    89.875899    89.779483 
     400    42600.662    95.939922    1350.3795    1171.0827    3005.0802    220.45052    221.56917    250.16712    22.411027    714.59784   -3513.6696   -91.189543     25503.33   -19699.178    5015.1361    1.1188484    27.553834    39.245338    39.397772    90.145834    89.794921    89.433826 
     600    41781.893    125.37246    323.47897    1530.3485    3110.8237    248.89915    327.01018    155.16597    15.010153    746.08545   -3400.6562   -92.976516    25464.164   -19698.769    4838.2829    1.1407737    27.353209    38.990448    39.180687    90.561923    89.902286    89.339737 
     800    42922.719    115.88821   -6775.7587    1414.5799    3635.1996     538.5967    460.07512    187.20304    38.449612    1224.3245   -3415.2093   -90.505332    25525.405   -19699.321    808.26408    1.1104535    27.595754    39.446017    39.432493    90.055636    90.213331    89.626442 
    1000     43102.77    116.87592   -9328.4612    1426.6363    3838.3666    593.95917    515.43733    332.26348    21.552876    1463.2129   -3311.5907   -90.127268    25387.459   -19700.715   -598.95825    1.1058149     27.66333    39.494839    39.453145    89.720749    90.251204    89.576542 
    1200    42513.157    108.86209    366.99995    1328.8161    3744.0343    323.66765    709.74841    347.56005     44.92179    1425.8979   -3407.9578    -91.37724    25425.009   -19698.915    5300.3944    1.1211514    27.801744    38.940105    39.273723    89.913337     90.20389    89.178879 
    1400    42748.175    113.18018     4036.554    1381.5245    3700.0771    355.37781    606.21658    362.43008    15.336734    1339.3612   -3442.9156   -90.874871    25498.627   -19694.995    7598.1439    1.1149876    27.802998    39.022119    39.403559    90.351345    90.256916    89.654839 
    1600     42562.45    121.11004    470.32143    1478.3196    3705.2274     461.4915    638.90847    254.24792    34.913583    1389.5615   -3423.0675   -91.271412    25434.875   -19696.142    5475.4894    1.1198529    27.787309    39.139889    39.135481    90.025424    90.188521    89.657535 
    1800    42827.388    104.81178   -6612.9853    1279.3763    3788.4263    433.89279    585.97909     319.7545     28.72355    1368.3499   -3421.7621    -90.70679    25538.928    -19697.09    937.37485    1.1129253    27.844733    39.221729    39.216222    89.759661    90.067061    89.614742 
    2000    42734.823    120.05917    198.07581    1465.4923    3621.3448    527.75616    398.44642    303.03813    34.617905    1263.8586   -3390.5322   -90.903264    25446.884   -19698.866    5210.2866    1.1153359    27.749458    39.297166    39.189863    90.325122    90.002205    89.906523 
    2200     43044.11    111.49475     5087.884    1360.9514    3785.8392    413.78596    548.35727    430.32715    35.996515    1428.4669   -3438.9005   -90.250092    25492.147   -19695.874    8340.7312    1.1073219    27.699271    39.500903    39.343501    89.289332    89.987924    89.865085 
    2400    43237.413    120.11315    9030.2172    1466.1512    3751.9832    616.29693     470.7272    286.62653    60.779115    1434.4298   -3455.3937   -89.846607    25469.975   -19697.028    10912.349    1.1023713    27.556256    39.637943    39.584884     89.94467    90.007985    89.890791 
    2600    42463.257    121.60826    5892.7996    1484.4012    3556.8427    333.39698    468.40949    257.38901    24.277314    1083.4728   -3341.9816   -91.484618    25514.081   -19698.729    8690.5548    1.1224689    27.571903    39.323764    39.166961    89.360525    89.893335    90.093515 
    2800     42509.65    111.71313    2092.2545    1363.6171    3654.5375    385.11642    376.49189    431.35104     46.20103    1239.1604   -3346.9007   -91.384777    25460.587   -19698.309     6315.268    1.1212439    27.662351    39.113031    39.291048     89.53667    89.978259    89.809048 
    3000    43165.117    129.10685   -2112.3493    1575.9321    3651.4475    533.98737    471.23808    275.14344    49.128241    1329.4971   -3407.3972   -89.997089    25427.878    -19698.53    3897.6156    1.1042176    27.753506    39.334306    39.541913    89.651351    89.949461     89.70122 
    3200    42580.714    120.13567    2310.3912    1466.4261    3628.2529    364.98205    573.25381    355.60355    34.429588     1328.269    -3489.622   -91.232262    25489.426   -19699.821    6529.4227    1.1193726     27.72338    39.130979    39.250855     90.18996    89.903015    89.972386 
    3400    42501.476     117.2973   -56.938635    1431.7798    3584.3064     336.5204    574.25205    291.87135    43.652976    1246.2968   -3346.4918   -91.402353    25383.691   -19699.189    4980.7934    1.1214595    27.768445    38.966238    39.280035    90.305184    89.920856    90.141168 
    3600    42985.675    121.87744   -2222.3439    1487.6868    3713.9307    479.65806    483.88739    294.21278    60.327107    1318.0853   -3346.9649   -90.372778    25441.028   -19698.218    3808.4257    1.1088272     27.78592     38.98646    39.681555    90.079181    89.898174    89.809073 
    3800    42779.198    112.30705   -3248.0226    1370.8667    3760.9144    412.66767    531.84705    339.09497    42.935938    1326.5456   -3372.2903   -90.808969    25503.447   -19696.788    3105.3699     1.114179    27.668151    38.859874    39.788253    89.835312    89.923401      89.8459 
    4000    42724.054    120.30714   -1484.5281    1468.5192    3611.6283    455.56483    389.14984    263.82822    43.727952    1152.2708   -3412.7453   -90.926177    25571.079   -19698.976    4155.1581    1.1156171    27.567715    38.758797    39.986803    89.561909    90.000162    89.801991 
    4200    42441.268      128.003    3426.8922     1562.458    3537.1889    358.55831    579.69376    221.19748    22.405981    1181.8555   -3294.5835   -91.532018    25348.018   -19698.101    7220.7641    1.1230504    27.512368     38.88326     39.67363    90.021031    90.004728    89.747718 
    4400    43236.396    133.34746   -3837.3671    1627.6947    3530.4724    337.41321    503.89485    374.75862    39.906316     1255.973   -3484.1111   -89.848721    25456.039   -19697.429    2738.4827    1.1023972    27.691963    39.108422    39.924009    90.072007    89.919494    89.653997 
    4600    42773.978    126.01302   -1662.9683    1538.1675    3625.6124    498.21338    381.48224    394.83219    81.643695    1356.1715    -3475.544   -90.820053    25443.984       -19699    4126.3959     1.114315    27.689387     39.00774    39.602669    90.243932    89.817167    89.794779 
    4800    42605.254    117.92294   -4175.2883    1439.4166     3638.195    362.53434    442.14162    395.60061    44.932356    1245.2089   -3406.5321   -91.179715     25494.17   -19694.651    2483.2799    1.1187278    27.687941    38.894236    39.564504    90.403656    89.707902    89.825944 
    5000    43202.561    122.06984   -2215.8104    1490.0354    3656.9912    534.40116    453.77365    234.56909    49.759722    1272.5036   -3390.5295   -89.919088    25473.796   -19698.779    3750.9219    1.1032606    27.753967    39.072374     39.84537    90.784317    89.590322    89.589721 
    5200    42717.098    115.34308   -3914.6141    1407.9258    3737.8827    583.70716    471.39469    338.95993    71.745681    1465.8075    -3469.109   -90.940983    25439.162   -19697.978    2707.0624    1.1157987     27.55126    39.034489    39.720796    90.069457    89.852723     89.74185 
    5400    42729.377    109.34226    174.90899    1334.6772    3765.1324    403.99628    559.09082    427.88847    51.469207    1442.4448   -3372.4521   -90.914849    25391.573   -19696.433    5208.8066    1.1154781    27.582496    38.938848    39.784505    90.170865    89.913667     90.15751 
    5600    42887.638    114.61195    2182.6092    1399.0013    3745.8574    504.30423    535.28931    258.38689    62.587361    1360.5678   -3459.8759   -90.579362    25542.062   -19696.896    6510.0201    1.1113618    27.620346    38.925809    39.891541    89.520415    90.053012    89.976618 
    5800    42473.774    116.22069    7931.7426    1418.6382    3678.6527    457.55067    422.33983    284.45523    58.887705    1223.2334   -3331.9958   -91.461967    25481.887   -19694.472    10010.501    1.1221909    27.637365    38.676338     39.73618    89.969122    90.235237    89.769454 
    6000    43051.153    122.94081    2360.7434    1500.6668    3650.3722    358.11232    503.51585    302.57692    50.484718    1214.6898   -3417.4898   -90.235327    25547.819   -19694.647    6633.2481    1.1071407    27.708618    38.986198    39.854317    90.402315    90.264953    90.119985 
    6200    42524.398     123.7385   -218.32625    1510.4037    3632.8238    410.50804    576.14027    347.12815    42.367297    1376.1438    -3434.125   -91.353084     25385.32   -19694.515    5007.8271     1.120855    27.490482    38.921896    39.744177    89.962319    90.202556    90.366039 
    6400    42692.629    117.69102    437.90427    1436.5857    3644.8006    352.99685    560.94442    265.12671    39.720036     1218.788   -3368.0147   -90.993104    25493.243   -19699.216    5354.0379    1.1164382      27.5645    38.976892    39.739927    90.081506    90.150976    90.668016 
    6600    42606.845    105.90027     450.2435    1292.6629     3825.572    513.26266    511.60994    333.64769    53.922248    1412.4425   -3401.2593    -91.17631     25513.12   -19698.731    5398.0059    1.1186861    27.519634    39.119703    39.580448    90.593377    90.256346    90.421382 
    6800    42255.362    127.92979   -3065.1989    1561.5644    3561.4654    415.50835     506.7207    239.67827    37.692269    1199.5996   -3331.4122    -91.93472    25391.829   -19698.551    3234.0975    1.1279914    27.410621    39.017633    39.514463     90.63375    90.308188    90.562685 
    7000    43010.729    98.438149   -7199.9458    1201.5771    3888.8342    501.83222    609.70021    340.93758    44.392377    1496.8624    -3385.204   -90.320136    25475.767   -19698.591    574.12021    1.1081813    27.520515    39.670508    39.400259    90.479569    90.241906    90.642814 
    7200    42447.562    108.48736    3013.1544    1324.2419    3781.2993    442.75918    574.01975    260.46074    48.631905    1325.8716   -3330.6225   -91.518446    25481.286   -19695.236     6970.847    1.1228839    27.461981    39.435084    39.197856    90.159907    90.134178    90.567299 
    7400    42387.265    128.82813    5361.4427    1572.5299    3530.3714    375.29151     527.3092    243.92145    38.691179    1185.2133   -3412.3345   -91.648634    25453.919   -19696.426    8417.2098    1.1244812    27.563333    39.419506    39.012291    89.914653    90.122522    90.336735 
    7600    42954.303    111.97943     929.9574    1366.8677    3742.9208    494.96367    568.34471    295.59501    42.585747    1401.4891   -3476.4806   -90.438784    25515.701   -19697.789    5692.3551     1.109637    27.545666    39.589771    39.390094    90.020739    90.048269    90.498305 
    7800    42583.121    115.17803   -7163.2221    1405.9111    3726.7722    488.16767    534.02129    324.47301    53.421594    1400.0836     -3462.09   -91.227105    25487.438   -19698.659    684.09926    1.1193093    27.469297    39.592788    39.157188    89.834109    90.238197    90.696889 
    8000    42196.096    130.98135   -7617.7613     1598.813    3525.5589    509.71797    417.11176    366.56615    46.755713    1340.1516   -3477.8857   -92.063847    25361.588   -19698.295    436.50241    1.1295757     27.42616    39.124661    39.326984    89.457213    90.282089    90.375846 
    8200    42625.601    111.90892   -3239.0354     1366.007    3690.4624    461.01592    608.56589    201.46972    30.124743    1301.1763   -3382.1633   -91.136191    25469.297   -19697.848    3042.9208    1.1181938    27.562444    39.424882     39.22822    89.988861     90.32408    90.374357 
    8400    42143.747    121.03005    4862.1371    1477.3433    3624.1798    433.09699    722.40231    274.69284    18.884122    1449.0763   -3494.9092   -92.178205    25367.113     -19697.1     8089.906    1.1309788    27.488973    39.309733    39.002359    90.091893    90.439022    90.213531 
    8600    42446.722     128.1486    2443.0075    1564.2352    3522.8858    429.06903    376.96322    279.05436    56.778497    1141.8651   -3490.9977   -91.520257    25571.569   -19699.551     6599.445    1.1229061    27.494738    39.576449    39.008768    90.150092    90.151117    90.149382 
    8800    42402.493    113.78237   -897.60294     1388.875    3751.1277    567.68394    776.45675    241.20831     11.34869    1596.6977   -3580.0896   -91.615719    25431.325   -19696.805    4584.9279    1.1240774    27.483364    39.514615    39.045405    89.994917    90.022292    89.695111 
    9000    42131.997    119.99387    996.62484    1464.6952    3606.4044    419.16057    402.21678    332.34615    52.878132    1206.6016   -3447.3778   -92.203912    25542.928   -19695.748    5683.4777    1.1312942    27.453327    39.388387    38.963002    90.067387    90.124254    89.816307 
    9200    42158.483    118.72745    3643.8471    1449.2368    3650.9326    541.80122    529.47418    258.35643    50.662831    1380.2947   -3491.6378   -92.145984     25462.38   -19700.104    7340.5459    1.1305835    27.451582    39.314889     39.06309    89.762331     90.18681    90.018355 
    9400    42591.839    118.36194    1818.5359    1444.7752    3670.1702    538.04304    487.92954    310.10793    26.199754    1362.2803    -3515.415   -91.208432    25522.709   -19699.404     6244.544    1.1190802    27.444195    39.453976    39.336542    90.219671    90.294061    90.178659 
    9600    42190.848    122.53867    1246.1297    1495.7581    3649.2055    519.83052    438.15851    307.17133    40.703076    1305.8634   -3367.8866   -92.075297    25409.318   -19698.089      5911.72    1.1297162    27.451033     39.30073    39.108197    90.030089    90.337856    89.863612 
    9800    42718.426    130.01426   -8720.2327    1587.0083    3538.6128    605.68823    390.94143    268.85582    27.664963    1293.1504   -3469.0919   -90.938157    25413.967   -19699.413    -307.1224    1.1157641    27.626211    39.528226    39.119692    90.068991    90.340994    90.112112 
   10000    41987.826    138.27673   -4996.0362    1687.8635    3367.7188     427.3072    393.03433    213.08939    36.457778    1069.8887   -3434.0167   -92.520506    25431.967   -19700.121    1996.2626    1.1351787    27.502542    39.152003    38.994881    89.764911    90.333164    89.977751 
   10200    42420.095    108.09769   -5176.4646    1319.4855    3753.3322    587.18558    615.31989    312.61384    45.854574    1560.9739   -3518.9488   -91.577704    25410.753   -19699.446    1870.3794     1.123611    27.559928    39.469673    38.999388    89.532018    90.407574    89.817441 
   10400    42434.134    117.88171    174.54111    1438.9134     3677.284    540.29584    451.10014    300.92409    58.991578    1351.3116   -3522.6253   -91.547405     25546.76   -19698.162    5224.2136    1.1232392    27.633051    39.455906    38.922822    89.497811    90.370186    89.754729 
   10600    42061.562    119.42113    330.85896    1457.7041    3639.2831    458.90984    564.87588    259.14384     46.99716    1329.9267   -3474.0617   -92.358312    25481.731   -19698.313    5299.9443    1.1331886    27.556188    39.235406    38.904875     89.96977    90.447427     89.80187 
   10800    42170.582    120.47143   -4564.4861    1470.5246    3633.4677    531.43548     617.7088    278.87729    32.751412     1460.773    -3528.043   -92.119547    25400.977   -19700.239    2296.7664    1.1302591    27.651852     39.08533    39.020898    90.143673    90.590958     89.86278 
   11000    42252.046    125.33167   -1144.9152    1529.8506    3589.2667    512.14856    432.21212    285.56197    52.960325     1282.883   -3466.0825   -91.941936    25471.588   -19699.122    4413.6174    1.1280799    27.721014    38.969446    39.114693    90.241711    90.571557    90.026245 
   11200    42429.642    121.88886   -1342.7889    1487.8263    3623.8297    496.53302    623.91596    299.89447    42.357875    1462.7013   -3536.5752   -91.557097    25396.347   -19698.643    4280.7479    1.1233581    27.758873    39.201909    38.992173    90.040088    90.446404    89.759186 
   11400    42318.776     120.7554    5078.7441    1473.9908    3647.6629    536.49631    524.20104     235.3056    16.250192    1312.2532   -3503.8016   -91.796957    25534.077   -19694.866    8256.1324    1.1263011    27.610491    39.367245    38.934218    89.901963    90.320642    90.031844 
   11600     41966.74    110.88237   -756.35331    1353.4765    3718.1068    448.66029    712.34602    314.35577    62.617903      1537.98   -3527.0323   -92.566992    25406.493   -19699.334    4608.6634     1.135749    27.552677     39.22924    38.827627    90.018069    90.099622    90.361215 
   11800    42272.054    132.99168   -5354.5026    1623.3519    3464.6457     521.7937    337.90745    367.99172    29.511398    1257.2043   -3562.8007   -91.898419    25470.121   -19699.879     1786.976     1.127546     27.56777    39.206412      39.1107     89.88755    90.046243    89.994647 
   12000    42243.762    113.76396   -860.12627    1388.6504    3716.2359    586.22464     595.1311    266.37623     66.78214    1514.5141   -3452.0856   -91.959966    25353.744   -19699.936    4574.9781    1.1283011    27.533106    39.231611    39.109118    89.761126    89.950892    90.207464 
   12200     42395.13    122.46131    1307.7009    1494.8139    3620.7023    372.48307      662.421    319.95363    34.368286     1389.226    -3529.074   -91.631631    25458.764   -19698.214    5924.0539    1.1242726    27.455905    39.397515    39.195806    90.074794    89.711756    90.581692 
   12400    42082.223    117.67421    6163.1378    1436.3805    3685.2281    450.02209    530.63987    395.93221     46.58251    1423.1767   -3464.0726   -92.312968    25424.733   -19698.609    8904.0869    1.1326323    27.435032    39.189724    39.141392    90.254905    89.772567    90.339083 
   12600    42324.907    118.00949    4932.1945    1440.4731    3648.4333    510.38016    577.88534    241.21205    32.163214    1361.6408   -3515.4813    -91.78366    25500.722   -19698.448    8133.3792    1.1261379      27.4325    39.282701    39.277455    90.420535    89.812735    89.979366 
   12800    42034.631    133.36032   -392.01677    1627.8517    3478.6395    451.99617    451.65616    285.41551    34.031413    1223.0993   -3497.1734   -92.417485    25450.546   -19697.832    4866.1724    1.1339147    27.495471    39.043239    39.158224    90.455564    89.772468     90.29242 
   13000    42294.151    103.50096   -6782.5683    1263.3759    3871.5425    601.21089    569.96081    391.39617    53.113338    1615.6812   -3475.3868   -91.850406    25429.191   -19697.943     951.3163    1.1269569    27.546836    39.123751    39.244411    89.888315    89.882474    90.347193 
   13200    42288.638    103.33007    -4256.042      1261.29     3894.973    572.15015    611.26975    395.96547    67.406903    1646.7923   -3479.2093   -91.862379    25426.265   -19698.875    2531.4069    1.1271038    27.539633    39.201159    39.171465    90.210408    89.944949    90.026108 
   13400    42345.236    139.34796     435.7318    1700.9393    3356.1944    433.71563    474.91295     200.8873    28.748516    1138.2644   -3557.7877   -91.739598    25476.534   -19700.816     5326.225    1.1255973    27.512173    39.167921    39.296562    89.729763    89.910928    89.967366 
   13600    41783.344    128.82307    349.83769    1572.4681    3502.6872    407.14702    517.63379    299.76491    37.548577    1262.0943   -3438.3531   -92.973288    25379.664   -19700.718     5288.335    1.1407341     27.50339     38.97182    38.982655    89.942341    89.910106    90.257216 
   13800    42305.724    111.46146   -7256.4211    1360.5451    3732.1102    469.25061    602.08024    395.74247     39.55656    1506.6299   -3426.2457   -91.825278    25351.396    -19699.67    615.54808    1.1266486    27.589722     39.12417    39.192937    89.890709    90.015589    90.070653 
   14000    42483.286    126.40852   -4159.0878    1542.9951    3589.3306    542.17891    395.27854    375.85331    67.371416    1380.6822   -3474.3168   -91.441489    25382.048   -19699.083    2555.4583    1.1219397    27.583992    39.298159    39.191572    89.954877    89.859407    90.193333 
   14200    41995.118    125.95524    2303.8185    1537.4623    3546.0999    419.36276    485.26928    295.93717    44.737861    1245.3071   -3467.1596   -92.504441      25464.5   -19696.548    6494.5489    1.1349816     27.42247     39.24652    39.020758    89.853403    89.901561    90.196504 
   14400    42012.349    137.59808    2457.4849    1679.5796    3407.2763    448.25495     409.4817    244.52548    58.888013    1161.1501   -3546.4464     -92.4665    25492.356   -19699.784    6592.5741     1.134516    27.373493    39.324805    39.029295    89.628087    90.002547    90.145137 
   14600    42318.346      112.931   -2124.5104    1378.4829    3765.9682    398.58964    601.70371    408.05366    51.655876    1460.0029   -3468.9965    -91.79789    25472.572    -19697.61    3833.2678    1.1263125    27.393698    39.496977    39.112771    90.009225     89.86397    89.779996 
   14800    42559.407     116.3407   -4904.2584    1420.1031    3689.0054    434.46595    672.30796    319.67307    64.951565    1491.3985   -3521.3616   -91.277936    25418.471   -19699.503    2065.1073     1.119933    27.250324    39.735899    39.305968    90.468602    89.808219    90.103233 
   15000    41956.558    125.29211    214.57344    1529.3677    3574.4167    404.55135     439.3263    399.48482    82.770641    1326.1331   -3490.0084   -92.589456    25437.829   -19699.537    5235.0805    1.1360246    27.149027    39.621236    39.007259    90.630481    89.854717    89.951348 
   15200    41970.372    118.71022    5478.0007    1449.0265    3658.6923    472.67347    544.46444     246.3646    25.506493     1289.009   -3433.2669   -92.558983    25500.929   -19697.979    8460.7747    1.1356508    27.316995    39.527611    38.870164    90.303483    89.908673    89.922329 
   15400    42269.785    119.71291     3421.339    1461.2657    3622.2177    383.03166    568.00079     299.0225     69.24338    1319.2983   -3364.1107   -91.903351    25363.782   -19696.752     7192.607    1.1276065    27.374243    39.727902     38.86849    90.275806    89.969775    89.934498 
   15600    42070.359    123.95484   -2949.6043    1513.0445    3568.9861    421.41155    453.10035     451.8708    38.213877    1364.5966   -3559.4147   -92.338999    25460.112   -19696.308    3272.2919    1.1329517    27.338797    39.679203    38.782499    89.854498    89.969808     90.08145 
   15800    41944.963    114.55792   -1961.4681    1398.3417    3711.1865    516.78827    530.10173    434.96472    78.119378    1559.9741   -3500.1501   -92.615051    25350.466   -19699.103    3909.6505    1.1363387    27.388663    39.387721    38.882306    89.779352    89.904455    90.031518 
   16000    42205.171    110.04078    1118.3142    1343.2036    3776.5548    493.33986    598.45612     394.4324    54.246974    1540.4753   -3487.2032   -92.044051    25421.829   -19698.546    5808.1022    1.1293328    27.409685    39.611929    38.872111    90.079207    89.907564    90.151433 
   16200    41931.403    130.04103    19.155437    1587.3351    3507.6132    573.02534    546.04094    214.65637      32.7361    1366.4588   -3570.7173   -92.645001    25411.189   -19699.317    5106.6624    1.1367062    27.348692    39.461752    38.853509    90.146254    89.871967    90.139596 
   16400    41739.622    125.28515   -2157.7834    1529.2829    3567.3331    542.91202     470.5635    284.46747    26.600368    1324.5434   -3480.7097   -93.070677    25423.416   -19699.916    3783.1094     1.141929    27.286469     39.17939    39.043383    90.049702    89.947106    90.233264 
   16600    42154.026    114.35678   -5098.9607    1395.8865    3754.2333     591.4218    667.32201    316.88348    33.661706     1609.289    -3483.598   -92.155727    25328.122    -19699.58    2015.4153     1.130703    27.333845    39.370862    39.171283    90.191552    90.155893    90.072471 
   16800    41890.485    132.47795   -823.77911    1617.0811    3460.4617    286.82303    550.90433    273.72212    48.760172    1160.2096   -3556.1089   -92.735495    25555.473   -19699.112    4574.2717    1.1378165    27.288205    39.367747    38.994672    89.723956    90.026225     90.06958 
   17000    41659.053    133.71516     1542.666    1632.1831    3468.6862      573.299    396.45399     276.4553    33.355366    1279.5636   -3468.8122   -93.250677    25357.676   -19699.741    6038.1231    1.1441375     27.24885    39.084113    39.117061    89.971024    90.017409    90.280115 
   17200    42202.971    127.49694   -3069.9052    1556.2809    3552.6885    537.51709    484.18084    304.77538    51.087824    1377.5611   -3514.3467   -92.048848    25388.523    -19699.05    3219.4824    1.1293917    27.376984    39.315906    39.209554      89.8658    89.887528    90.105281 
   17400    41791.963    117.78092   -3311.1722     1437.683    3668.4902    491.68651    528.17229    441.32999    35.910185     1497.099   -3517.6446   -92.954114     25386.71   -19697.674    3088.0372    1.1404988    27.357444    39.182898    38.987431     89.92032    89.840759    89.834116 
   17600    41650.056    114.49795    159.83914    1397.6098    3696.2493    649.27243     539.4659    220.86466    85.076314    1494.6793   -3483.8811   -93.270819    25384.465   -19699.014    5190.9491    1.1443846    27.402965    39.090176    38.882712    90.056725    89.759658    89.821897 
   17800    41939.401    113.49422    2679.9752    1385.3578    3722.1639    610.95402    446.83922    314.11537    40.610045    1412.5187   -3536.8859   -92.627333    25546.223   -19699.692    6746.7102    1.1364894    27.378321    39.185556    39.092715    90.247343    89.818066    90.055498 
   18000    41883.901    116.57669    2989.4658    1422.9837    3718.7854    580.76851    547.74364    358.90538    63.163028    1550.5806   -3475.5055   -92.750074    25341.291    -19697.58    6967.8357    1.1379953    27.362143     39.35821    38.892474    90.098755    89.838294    89.848585 
   18200    41751.333    127.85022   -921.49711    1560.5931    3509.7328    492.12234    484.62415    327.87008    43.899755    1348.5163   -3630.3736   -93.044572    25491.172   -19699.582    4509.2259    1.1416087    27.372935     39.26675    38.845133    90.421186    89.916694    90.077072 
   18400    41852.905    117.92637   -4039.4886    1439.4585    3663.0881     605.6163    664.26762    294.47122    29.765755    1594.1209   -3524.0599   -92.818764    25293.569   -19700.542    2636.9167    1.1388381    27.352234    39.287211    38.947797    89.959155     90.03716    90.128015 
   18600    41988.022    146.37198    4291.4353    1786.6774    3320.9094    455.89645    371.54387    210.95026    41.196468    1079.5871   -3538.1884   -92.520073    25479.742   -19700.231    7735.4568    1.1351733    27.336137    39.409533    38.975192    89.880908    90.071906    90.001399 
   18800    41676.096    99.088402    9396.7037    1209.5144     3871.052    588.65116    550.12771    448.42622    44.310481    1631.5156   -3492.9577   -93.212543     25432.44   -19699.946    10791.912    1.1436696    27.315668    39.333869    38.789418    89.748003     90.07162    89.949266 
   19000    41943.408     116.1549    5863.3108    1417.8352    3658.0868     480.1008    501.42527    331.87036    63.516383    1376.9128   -3524.6803   -92.618485    25504.748   -19698.893    8662.5184    1.1363808    27.344325    39.480448    38.852494    89.809112    90.090486    90.152127 
   19200    41999.914    129.17045   -217.24568    1576.7083    3545.1885    525.16171    536.03888    276.24326    49.824234    1387.2681   -3447.2172   -92.493877    25305.231   -19700.093    4988.8283    1.1348519    27.262552     39.46475    39.037002    90.149509    90.187725    90.040357 
   19400    41842.869    121.29718   -3468.6474     1480.604    3596.6121    561.68515    511.49251    303.05589    51.667822    1427.9014   -3575.3911   -92.841027     25444.05   -19699.948     2960.525    1.1391113    27.316472    39.383495    38.895364    90.427201     90.18384     89.87873 
   19600    41587.334    114.78095    2179.9173    1401.0641    3710.7665    585.20416    492.61101     371.8627     47.51406    1497.1919   -3490.1306   -93.411492     25403.72   -19700.015    6433.9692    1.1461106     27.37193    39.116861    38.841398    90.062937    90.169446    90.124369 
   19800     42013.74    112.00048   -491.67485    1367.1246     3720.886    487.93646    550.04122    353.28455    78.739298    1470.0015   -3478.0393   -92.463438    25427.175   -19698.252     4786.748    1.1344785    27.438003    39.305841    38.957118    90.210861    89.925374    90.162749 
   20000    41892.118     135.7355   -4958.2888    1656.8441    3439.5481    456.08897    583.74806    204.86328    50.338997    1295.0393   -3523.6081   -92.731881    25367.898   -19699.781     2067.108    1.1377721    27.340995    39.349154    38.939732    89.688657    89.784175    89.884547 
   20200    41790.678    115.28089   -5587.5654    1407.1667    3691.4786    688.23581    449.12916    340.46739    30.089757    1507.9221   -3504.0025   -92.956972    25387.411   -19699.852    1693.1684    1.1405339    27.318899    39.455262    38.771568    89.958894    89.833868    89.954205 
   20400    41821.054    118.01697    -3607.318    1440.5644    3655.5639    687.57543    549.13401    255.70279    30.904245    1523.3165   -3526.6355   -92.889454    25359.022   -19700.139    2895.9631    1.1397055    27.340072    39.439139    38.785435    89.901353    89.962104    89.978646 
   20600    41870.841    114.16443   -1576.9905    1393.5386    3767.3265    499.33696     620.7776    318.41228     39.83739    1478.3642   -3482.8239   -92.779002    25467.721   -19695.934    4197.8865    1.1383503    27.411108    39.451224     38.71951    89.782714    90.054251    89.829937 
   20800    41851.481    132.80237   -3040.1395    1621.0411    3482.1754    532.27827    427.02015     277.9149    35.701887    1272.9152   -3518.2158   -92.821922    25426.626    -19699.15    3247.6342    1.1388769    27.348346    39.387023    38.853434    90.141974    90.123916    89.916349 
   21000    41890.617    127.88741   -5363.1212    1561.0471    3530.5475     453.4836    501.98837    383.38191    40.113334    1378.9672     -3478.59   -92.735204     25330.39    -19700.22     1815.094    1.1378129    27.328184    39.572088    38.736347    90.058388    89.994879    90.147244 
   21200    41767.452    130.30947   -3300.5385    1590.6118    3545.7327    543.40923    470.27711    347.39358    37.078569    1398.1585   -3548.0631   -93.008663    25392.796   -19697.158    3125.8695    1.1411681    27.349266    39.448578    38.713763     90.00464    89.839964    89.797053 
   21400     42193.87     120.6364   -511.67416    1472.5382    3628.5226    543.51365    465.79598    343.53402    43.830674    1396.6743   -3492.2939   -92.068703    25420.793   -19696.651    4786.1999    1.1296353     27.41974    39.612731    38.846661    89.929314    89.842298     89.91594 
   21600     41702.05    114.59801    3404.7673    1398.8311    3697.1463    693.74932     397.4568    358.81405    29.577178    1479.5974   -3504.2428   -93.154531     25421.38   -19699.589    7166.6943    1.1429578    27.338614    39.333673    38.780895    89.872964    89.973397    90.067512 
   21800    41749.928    134.70319    2154.6749    1644.2434    3478.2904     451.5129     557.2616    251.29706    53.704154    1313.7757   -3616.6539   -93.047702        25481   -19699.832     6434.472    1.1416471    27.376878    39.248116    38.855646    89.938757    89.885466    90.011438 
   22000    41735.304    113.12043     7238.793    1380.7951    3748.0292    662.64028    560.41422    348.86535    24.615965    1596.5358   -3541.1907   -93.080307    25391.837   -19699.153    9534.8358    1.1420471    27.412865    39.172732    38.865827      90.0207    89.807631    90.048675 
   22200    41767.314    111.27657    7703.3735    1358.2882      3732.81    603.33183    544.25854    334.40467    84.785812    1566.7808    -3520.996   -93.008971    25386.761   -19699.736    9783.4806    1.1411719    27.349054    39.256789     38.90349    89.685202    89.829703    90.096976 
   22400    41928.511    114.61436    5094.4297    1399.0307    3728.6212    575.56456    561.53106     375.0162     55.32274    1567.4346   -3557.5384   -92.651392     25418.05   -19699.325    8242.8158    1.1367846    27.342541    39.409734    38.910826    90.059054    89.785178    89.961188 
   22600    41773.013     123.9256    259.88565    1512.6876     3640.776    630.41071    451.68162     320.5136    56.361212    1458.9671   -3503.4826   -92.996282    25383.203   -19697.911    5311.7903    1.1410162    27.316683    39.327513     38.88426    89.969806    89.876223     90.14638 
   22800    41855.704    111.64793    -2345.706    1362.8212    3720.0639    652.79787    501.53856    331.11632    41.016001    1526.4687   -3486.9253   -92.812556    25380.493   -19699.973    3651.0133     1.138762    27.340484    39.303743    38.950703    90.001861    89.971948    90.103996 
   23000    41746.047     130.9681   -65.398507    1598.6512    3493.2362    487.32948    533.99408    258.38905    25.410498    1305.1231    -3510.343   -93.056353     25397.81   -19699.354    5052.0713    1.1417532    27.363846    39.242211    38.876726    90.199156    90.098041    90.158915 
   23200    41924.078    136.31685   -773.80105    1663.9403    3473.1479    525.88334    540.84616    233.64677    44.026706     1344.403   -3551.1174   -92.661188    25379.903   -19700.041     4663.971    1.1369048    27.414277    39.337233    38.876207    90.114599    90.028701    90.023238 
   23400    41803.101    118.29241   -4188.7355    1443.9265    3675.7443    611.08392    516.53635    268.30922    24.447083    1420.3766   -3512.8937   -92.929346    25464.824   -19696.562    2565.9857    1.1401949    27.371451    39.257741    38.903548     89.94639    90.049224    90.229666 
   23600     41856.61    115.15125   -7786.5961    1405.5842    3677.0263    696.59962    526.90357    241.23634    54.707311    1519.4468   -3516.3967   -92.810548    25372.552   -19698.576    329.39402    1.1387373    27.407743    39.319477    38.840389    89.995098    90.037581     90.07986 
   23800    41923.047    114.78058   -10701.103    1401.0596    3709.5255    681.39095    492.13927    306.31737    33.649687    1513.4973   -3482.2887   -92.663467    25376.401   -19698.084   -1432.1189    1.1369327    27.395259    39.431505    38.809806    89.684921    89.946061    90.098023 
   24000    41858.835     118.7347   -5161.2567    1449.3252    3660.5152    588.40704     564.5885    288.68839    37.667514    1479.3514   -3493.3619   -92.805615     25373.01   -19698.484    1959.0576    1.1386768    27.393158    39.345137    38.837974    89.874088    89.849235    90.029622 
   24200    41929.147    121.25755    2162.6212    1480.1203    3582.7473    568.90841    498.68647    293.25566    40.958642    1401.8092   -3490.8748   -92.649986     25370.41   -19698.597    6385.2966    1.1367673    27.355145    39.439135    38.864669    89.795772     89.82188    90.084481 
   24400    41704.778    130.15148    1548.3245    1588.6833    3519.1364    516.45963    489.48229    243.82771     37.52823    1287.2979   -3514.9449   -93.148438    25444.955   -19698.171    6049.5438    1.1428831    27.377091    39.302026    38.760167    89.876173    89.873822    89.993127 
   24600    41935.072    120.64151   -470.80988    1472.6006    3637.8094    609.61563    532.83517    262.66843    31.302459    1436.4217   -3529.0382   -92.636897    25428.141   -19697.715    4822.4721    1.1366067     27.44962    39.302959    38.870356    90.034595    89.802191    90.026912 
   24800    41898.366    126.86268   -287.85282    1548.5388    3538.9079    559.31668    483.58532    262.91065    52.088608    1357.9013   -3510.9025   -92.718053    25390.048   -19698.139    4911.5557    1.1376025    27.433993    39.277228    38.883913    90.117559    89.846287    90.063156 
   25000    41901.555    117.63583    4594.7672     1435.912    3671.9497    683.50834    499.15627    268.72266    29.185502    1480.5728   -3551.1739   -92.710995    25440.161    -19697.61    7915.6835    1.1375159    27.399288       39.305    38.908612    89.966798    89.802236    89.983256 
   25200    41891.507    115.29234    7372.9732    1407.3064    3714.6111    625.51975    543.11007     296.1706    50.787115    1515.5875   -3526.1105   -92.733233    25423.444    -19698.31    9626.3961    1.1377887     27.44703    39.263513     38.87263    90.012436    89.816291     89.94344 
   25400    41984.879    119.40942    6107.7516    1457.5612    3605.0496     627.4081     476.8469    272.45023    41.242335    1417.9476   -3508.8173      -92.527    25394.296   -19698.377    8802.4262    1.1352583      27.4567    39.269187    38.939992    89.842479    89.863257     89.92965 
   25600    41943.711     111.7686    1152.5911    1364.2941    3767.1674    633.38752    554.98656    312.82122    45.586153    1546.7815   -3508.7269   -92.617816    25426.563    -19697.45    5836.5084    1.1363726    27.388478    39.324432    38.943689    89.987042    89.906826    90.012895 
   25800    41926.885     122.8577   -92.849207    1499.6524    3602.9496    565.56824    523.41451    252.16212     50.80441    1391.9493   -3495.4659   -92.654986    25404.557   -19698.091    5045.8284    1.1368287    27.372585    39.345135    38.930143    90.046428    89.961052    89.986722 
   26000    42034.663    114.29106   -900.15051    1395.0844    3688.6909    644.19668    499.39347    274.76329     38.88933    1457.2428   -3499.3797   -92.417415    25428.082   -19697.255    4531.9538    1.1339138    27.472744     39.36672    38.866671    90.039955    89.985358    90.118359 
   26200     42028.47    124.55285   -236.85037     1520.344    3625.6429     550.2273    530.97367    274.72615    42.677989    1398.6051   -3506.8998   -92.431032    25431.445   -19697.507    5000.8114    1.1340809    27.432944    39.408421    38.876094    90.011934    90.059097    90.061345 
   26400    41870.615    118.72159    -1122.298    1449.1653    3650.4097     587.2978    525.71966    279.76965    43.706404    1436.4935   -3493.8392   -92.779505    25405.643   -19697.888    4414.2549    1.1383564    27.367292    39.388693    38.842433    89.940209    89.973362    90.054321 
   26600     42072.32    116.10947   -3052.5108    1417.2807    3685.3931    636.13324    500.64353    283.57569    35.598524     1455.951   -3497.9617   -92.334697    25424.949   -19697.545    3229.7092    1.1328989    27.443603    39.401743    38.908236    89.866876    89.918633    89.977744 
   26800    42075.631    131.70658   -5807.3813    1607.6655    3532.3084    561.37848    456.00216    259.31417     43.15289    1319.8477   -3490.9641    -92.32743    25400.963   -19697.539     1576.391    1.1328097    27.520534    39.301244    38.901825    89.906149    89.838697    90.053839 
   27000    41933.636    116.91197   -5202.5693    1427.0763     3651.465    662.81621    438.41701    284.41103     40.92859    1426.5728   -3473.5452   -92.640067    25395.603   -19697.165    1896.8628    1.1366456     27.43737    39.233956    38.954908    89.931001    89.757514    89.973623 
   27200    42027.324    118.47976    -3884.521    1446.2134     3656.651    638.54597    494.31423    274.71318    40.407815    1447.9812   -3503.3591   -92.433553    25410.143   -19698.114    2721.9427    1.1341118    27.413629    39.285121    39.025025    90.093381    89.713151    90.029777 
   27400    42064.841    127.15429    108.51281    1552.0982    3581.0537    554.17663     456.7541    290.51893    45.473425    1346.9231    -3489.393   -92.351112    25421.005   -19697.482    5199.7216    1.1331003    27.442883    39.253191     39.05015    90.248071    89.756319    90.049164 
   27600    42112.981    117.44223    2295.2136    1433.5489    3665.6526    610.82188    493.34842    294.39173    44.605594    1443.1676   -3502.7427   -92.245545    25422.342   -19697.115    6508.8635     1.131805    27.468916     39.30475    39.005851    89.998988    89.988165    90.068436 
   27800    41888.626    119.48926    2135.4756    1458.5357     3604.477    541.74356    483.59402     287.0126    45.344258    1357.6944   -3513.3992   -92.739611    25458.153   -19697.971    6367.5804     1.137867     27.39181     39.36297    38.850348    89.801015    90.267731    90.019737 
   28000    42005.278    119.62322    879.01698     1460.171    3622.5479    588.61441    500.43052     282.5344     45.67833    1417.2577   -3488.1617   -92.482066    25390.922    -19697.47    5621.2081     1.134707    27.495233    39.374338    38.802401    89.741447    90.562994    90.021901 
   28200     42308.42    117.54744   -156.78255    1434.8331    3696.9715    609.06321    531.67675    278.54638    44.286725    1463.5731   -3480.6074   -91.819428    25411.039   -19697.033    5035.0659    1.1265768    27.583877      39.3939    38.937445    90.019971    90.612485    89.962987 
   28400    41947.763    121.77927    3857.4128    1486.4886    3598.4615    567.38312    512.10995    272.65876    42.767687    1394.9195    -3504.836   -92.608869    25406.407   -19698.029    7444.7806    1.1362628    27.427702    39.308548    38.908667    90.250383    90.379343    89.931029 
   28600     41885.37    116.01358    3897.0232    1416.1102    3664.2379    571.27896    542.79559    279.05704    41.882674    1435.0143   -3512.3176   -92.746821    25439.468   -19697.927    7460.8647    1.1379554    27.354632    39.271937    38.989882    90.198514    89.958891    90.025705 
   28800    42246.961    119.66623    2762.7505    1460.6959    3657.3767    581.67146    521.70341    278.37473     45.99228    1427.7419   -3505.4491   -91.953003    25432.807   -19697.723    6820.2822    1.1282157    27.480518    39.275305    39.143686    89.890819     89.61688    90.057168 
   29000     42149.64     123.2092   -283.20346    1503.9429    3615.6878    544.45843    502.23086    284.34954    44.824743    1375.8636   -3480.2954   -92.165317     25417.41    -19697.29    4945.5429    1.1308207    27.481896    39.279741    39.048014    89.790736    89.493649     90.08782 
   29200    41991.416    114.67565   -1383.3265    1399.7789    3693.8446    621.90762    519.20566    278.23148    42.237954    1461.5827   -3485.1221   -92.512596    25414.496   -19697.112     4246.472    1.1350816    27.413721    39.327228    38.950688    89.800528    89.560052    90.085864 
   29400    42015.111    117.63651   -1341.3098    1435.9203    3602.2147    546.02449    505.66122     268.0334    43.767416    1363.4865   -3482.7328   -92.460423    25419.183   -19697.721    4216.2511    1.1344415    27.444256     39.32081    38.934628        90.13    89.818525    90.131538 
   29600    42139.075    121.65571  -0.27564434    1484.9804     3629.937     564.8247    523.48438    274.39687    36.498691    1399.2046    -3476.725   -92.188423    25405.123   -19697.665     5114.748    1.1311042    27.518392    39.332994    38.931996    90.155855    90.038449    89.990809 
   29800    42112.187    118.93829   -1948.2465    1451.8104    3671.8685    598.69843     505.7361    277.53438    42.198964    1424.1679   -3480.2239   -92.247284    25425.082   -19697.157    3927.1378    1.1318264    27.496065    39.314991    38.956772    90.116658     90.21105    89.973936 
   30000    42059.049    120.26291   -2972.8071    1467.9792    3593.1156     559.7225    508.51809    268.67302    40.480457    1377.3941   -3492.7848   -92.363831    25406.355   -19697.849    3237.6104    1.1332563    27.409053    39.327028    39.019483    89.834178    90.285425    89.984818 
   30200    41997.495    119.23308   -2937.9829    1455.4087    3650.6332    593.59416    501.97766    276.65652    43.852185    1416.0805     -3474.25   -92.499205     25406.27   -19697.468    3306.5557    1.1349173    27.427873    39.217191    39.044803    89.735605    90.230353    89.930514 
   30400    42314.254     121.4768   -1359.5504    1482.7965    3625.3736    570.68621    497.82811    271.60391    43.564895    1383.6831   -3493.8072   -91.806767    25432.213   -19696.715    4269.1779    1.1264215    27.532891    39.291362    39.114885    89.790867    90.033278    89.860219 
   30600    41975.575    122.95016    495.42897     1500.781    3652.4439    573.91715    511.04417    273.40991    41.141186    1399.5124   -3459.5662   -92.547509    25409.732   -19697.234     5456.512      1.13551    27.439682    39.225907    38.998538    90.116888    89.821482    89.895342 
   30800    42139.311    119.76611    1075.1076    1461.9152    3638.1932     585.9595    490.33685    283.82196     44.53396    1404.6523   -3507.7468   -92.187908     25438.91   -19697.622    5760.8251    1.1310979    27.451907    39.351422    39.008773    90.124168      89.6891    89.922701 
   31000    42151.075    120.50696    1610.5007    1470.9582    3631.3334    575.28434    505.61011    273.40111    42.796416     1397.092   -3486.4735   -92.162179    25418.132   -19697.417     6092.315    1.1307822    27.516562    39.313671    38.965432    90.062887     89.64631    89.964324 
   31200    42093.666    123.48775    1315.0007     1507.343    3656.2916    579.76988    505.25306    288.87195    46.185072      1420.08   -3486.4851   -92.287873    25419.741   -19697.045    5970.9042    1.1323244    27.501738    39.249902    38.996428     89.77357      89.7959    90.098591 
   31400    42186.469    117.89446    873.89211     1439.069      3654.14    599.45995    501.74817    277.25366    42.000581    1420.4624   -3504.9155   -92.084856    25435.759   -19697.166     5630.868    1.1298335    27.477269    39.302381    39.065131    89.768666    90.106128    90.254313 
   31600    42017.213    117.85677    776.10976    1438.6089    3674.7246    589.50478    526.01782    281.35745    44.999361    1441.8794   -3478.2593   -92.455795    25408.277   -19697.172    5588.9165    1.1343847    27.452223    39.219388    39.027421     90.01207    90.459866    90.323904 
   31800    42299.819    122.66786    1532.5667    1497.3351    3638.0501    579.45931    484.31523    286.70953    40.198467    1390.6825   -3476.1183   -91.838098    25420.393   -19696.907    6080.8248    1.1268059    27.500115     39.32211    39.120532    90.308514    90.612122     90.30997 
   32000    42163.761    118.94943     1418.768    1451.9464    3664.2924    564.43211    513.10666    285.38643    44.788084    1407.7133    -3486.931   -92.134449    25440.611   -19697.101    5988.6608    1.1304419    27.459755    39.355618     39.01736    90.221675    90.497152    90.186078 
   32200    41916.397    117.09324    961.44447     1429.289    3649.3071    583.54385    522.52628    271.25937    39.782271    1417.1118     -3491.62   -92.678169     25420.91   -19697.095    5666.3345    1.1371131    27.421409    39.279949    38.915698    89.900566    90.114025    90.025553 
   32400    42334.043    122.36426   -2315.7716    1493.6292    3661.0305    587.47403    487.36128    282.39331    43.158768    1400.3874   -3480.2318   -91.763853    25437.401   -19696.526    3724.9056    1.1258949    27.587239    39.378264    38.970813    89.660377    89.696038    89.889357 
   32600    42200.489    119.71463   -1952.9412    1461.2867    3666.8102    591.31318    507.79195    278.40404    40.331893    1417.8411   -3451.6656   -92.054263    25397.388   -19696.753    3926.1576    1.1294581     27.54071    39.321319    38.970304    89.804081    89.540847    89.784118 
   32800     42025.26    117.06658   -1883.0684    1428.9635    3665.3598     589.9748    504.92766     280.1448    43.417695     1418.465   -3476.7644   -92.438092    25421.114   -19697.455    3940.1995    1.1341675    27.431695    39.260968      39.0221    90.128947     89.62944    89.764351 
   33000    42219.812    120.98467   -184.34662    1476.7894    3625.0484    563.74817    476.73662    285.78978    40.390905    1366.6655   -3482.0768   -92.012131    25437.271   -19696.811    4988.3296    1.1289412    27.479616     39.31001    39.084693    90.204621    89.897527    89.893272 
   33200    42163.253    120.34161   -723.99112    1468.9398     3645.487    567.98021    498.70085    285.57252    47.235163    1399.4887   -3473.6934   -92.135558    25417.332    -19697.64     4669.239    1.1304556    27.517117    39.197195    39.091129    90.060371    90.153362    89.942102 
   33400    42199.053    119.47243   -1604.3059    1458.3303    3642.0614    583.85946    491.16269    277.66099    38.972567    1391.6557   -3473.6273   -92.057394    25421.098   -19697.065    4113.0538    1.1294965    27.523433    39.209458    39.103642    89.897267    90.329894    90.024593 
   33600    42164.469    120.00901   -1509.4173      1464.88    3625.0541    581.61965    480.92229    280.24598    43.853084     1386.641   -3481.6452   -92.132902    25417.292   -19697.234    4161.7549     1.130423    27.490457    39.286831     39.04189    89.744798     90.35066    90.105066 
   33800    42056.394    122.49164    724.32836    1495.1841    3652.1137    593.71282    482.48014    276.22449    39.478677    1391.8961    -3473.608   -92.369661    25430.894   -19697.068    5591.5642    1.1333279    27.493904    39.235055    38.987563     89.92231    90.179047     90.18272 
   34000    42302.785    115.57203    1785.1712    1410.7204    3678.2729    571.30734    521.26978    287.25221    45.783049    1425.6124   -3474.8427   -91.831658    25424.753   -19697.249    6190.3417    1.1267269    27.580168     39.27638    39.052286    90.220151    89.874744    90.156414 
   34200    42133.971     118.6994    2187.6256    1448.8944      3659.54    576.87647    511.30852    285.67412    42.452056    1416.3112   -3486.8821    -92.19959    25427.537   -19697.427    6452.6882    1.1312412    27.490424    39.271268     39.02908     90.21288    89.645359    90.122358 
   34400     42071.93    121.68396    1104.1431    1485.3252    3655.8404    579.35576    495.05373    290.66667    48.803465    1413.8796   -3485.4206   -92.335553    25424.714   -19697.333    5818.6412    1.1329094    27.439559     39.26298    39.052039    90.071817    89.586022    90.007444 
   34600    42315.578    118.84066   -230.42589    1450.6187    3619.2624    556.48682    487.97789    275.55599    42.205601    1362.2263   -3466.4888   -91.803896    25420.005    -19696.48    4927.6786    1.1263862    27.554272    39.267014    39.110616    89.791165    89.709254    89.795823 
   34800    42171.209    118.39636    314.60251    1445.1954    3681.2974    575.76735    524.32893    280.04371    44.171305    1424.3113   -3477.1018   -92.118176    25431.092   -19697.005    5319.9808    1.1302423    27.507128    39.238593    39.072747    89.614646     90.04749     89.68489 
   35000    42050.764    122.84382    1247.2194    1499.4829    3611.4095    554.00909     486.8132    271.97462    43.776438    1356.5733   -3476.6604   -92.382029    25428.722   -19697.225    5875.7713    1.1334796    27.478624    39.260569    38.980309    89.897851     90.47004    89.660625 
   35200    42267.302    117.55584    1243.8915    1434.9356    3620.7415    545.69936    500.57277    271.49742     41.83551    1359.6051   -3475.6591   -91.908751    25433.581   -19696.785    5822.4433    1.1276727    27.529011    39.282849    39.089118    90.239969     90.72471    89.686054 
   35400    42176.819    118.39851   -21.851584    1445.2215    3635.3304    560.19915    508.57419    269.25732    43.187091    1381.2177   -3469.6144   -92.105924     25419.79   -19696.063    5067.1109     1.130092    27.493359    39.295403    39.042406    90.300679    90.599567    89.800602 
   35600     42145.84     121.4793   -1223.3991     1482.827    3635.7924    565.62959    480.11318    271.75778    44.764777    1362.2653   -3465.2067   -92.173627    25435.061   -19696.327    4366.6525    1.1309226    27.445266    39.340924    39.034384    90.158589    90.202388    90.060576 
   35800    42242.818    118.47815   -3057.5432    1446.1938     3669.936    586.62881    510.84151    277.92282    42.612758    1418.0059   -3472.5417   -91.962019    25421.453   -19696.981    3232.4747    1.1283263    27.479942     39.30977    39.106201    89.826654    89.743032     90.20159 
   36000    42185.175    118.80818   -1260.0315    1450.2222      3621.55    565.90622    499.34476    266.11407    42.865908    1374.2309    -3464.643   -92.087681    25408.537   -19696.575    4296.5662    1.1298681    27.497636     39.21068    39.127762    89.776153    89.498773    90.271897 
   36200    42187.614    120.34454   -318.80859    1468.9756    3651.3114    554.75761    524.26105    282.32198    41.882832    1403.2235   -3482.6954   -92.082356    25427.211   -19696.427    4924.1358    1.1298028    27.495887    39.255952    39.087138    89.929748    89.501747    90.285289 
   36400    42176.603    121.10663    225.52544     1478.278    3650.9439    556.17643      504.184    285.42177    44.935266    1390.7175    -3481.571   -92.106396    25438.897     -19697.1    5267.9431    1.1300978     27.50103    39.263153     39.06131    90.166483    89.711715    90.174925 
   36600    42160.306    120.09591   -615.63749    1465.9408    3607.0554    557.13211    494.63718    271.27855    42.571941    1365.6198   -3471.5499   -92.141999    25410.184   -19697.198    4694.4623    1.1305346    27.508301    39.243623    39.054731    90.183051    90.087166    90.021077 
   36800    42208.468     118.4375   -682.54268    1445.6976    3657.0648    579.57085    505.75176    271.30499    42.765252    1399.3929   -3475.5549    -92.03686    25430.027     -19696.8    4682.6115    1.1292446     27.47702     39.36169    39.027399     90.16281     90.38928    89.843323 
   37000    42125.286    120.63519    643.89198    1472.5234    3654.6266    570.09954     513.9816     277.2238    42.138341    1403.4433   -3484.5203   -92.218599    25432.862   -19697.158    5522.7277    1.1314744    27.489047     39.33301    38.962496    89.888065    90.520296    89.825225 
   37200    42214.554    118.17728    1910.0524    1442.5211    3610.7775    558.21641    488.66077    271.70963    41.567548    1360.1544   -3472.0214   -92.023591    25419.814    -19697.17    6229.2337    1.1290818    27.516523    39.273935     39.06468    89.752105    90.430646    89.765597 
   37400    42189.645    118.34018    1696.6452    1444.5097    3665.1578     581.4034    507.69042    282.42084    42.147732    1413.6624   -3487.8267   -92.077923    25436.263   -19696.941    6153.6008    1.1297484    27.486172    39.228216    39.128898    89.840396    90.138043    89.843382 
   37600    42153.875    119.01134    168.71826     1452.702    3665.4699    562.86669    511.37536    290.29504    47.211406    1411.7485   -3474.2123   -92.156057    25424.565   -19696.632     5221.895    1.1307071    27.462913    39.231005    39.126427    90.183896    89.696744    89.921821 
   37800    42243.679    117.39026   -632.00571    1432.9144    3630.4158    564.45535    489.82394    283.64916    40.909168    1378.8376    -3467.817   -91.960147    25416.274   -19696.879    4673.9637    1.1283034     27.54753    39.214266    39.108605    90.319901    89.321174    90.043558 
   38000    42232.048    116.87174   -807.20821    1426.5853    3668.1602    577.38203    503.28158    289.60241    47.620353    1417.8864   -3481.5977   -91.985472    25428.391    -19696.52     4597.577    1.1286141    27.535349    39.281077    39.048776    90.111575    89.258392    90.177528 
   38200     42127.53    121.32732    778.25436    1480.9719    3640.5187    556.39927    502.55111    282.10267    43.229267    1384.2823    -3486.296   -92.213688    25439.081   -19696.548    5599.6398    1.1314142    27.491228    39.348443    38.946471    89.716477     89.53563    90.250624 
   38400    42241.494    118.02911    490.02524    1440.7126    3636.6403    558.29043    506.97191    272.98447    42.097239     1380.344   -3475.3478   -91.964904    25428.589   -19696.945    5379.2324    1.1283617    27.499872    39.393328    38.993837    89.681378    89.981827    90.223666 
   38600    42192.484     119.8972   -31.698465    1463.5152    3636.8524      567.064    498.14694     271.9249    40.089064    1377.2249   -3462.9159   -92.071728    25419.767   -19697.223    5080.8624    1.1296724    27.491916    39.321647    39.030743    90.005855    90.332403    90.130544 
   38800      42274.9    121.18769   -1391.9903    1479.2675    3640.8278    569.30867    488.54881    280.94491    41.440864    1380.2433   -3466.2036   -91.892231     25423.21   -19696.422    4261.8831    1.1274701    27.523396    39.351849    39.033051    90.249361    90.442626    90.006878 
   39000    42180.428    118.58759   -1412.6539    1447.5295    3642.1485     562.8314    502.83248    273.92517    42.097846    1381.6869   -3472.4878   -92.098043     25430.32   -19697.371    4220.6723    1.1299953    27.520653    39.233397    39.066613    90.190519     90.31189    89.905211 
   39200    42146.079    118.76758   -1365.4109    1449.7266    3615.3215    552.56231    502.60779    269.67211    41.465597    1366.3078   -3475.0973   -92.173102    25420.752   -19696.641    4225.7883    1.1309162    27.518279    39.135963    39.134649    90.034241    90.043476    89.856781 
   39400    42347.978    120.56823   -892.79106    1471.7061    3659.6468    563.68146     511.2082    275.49066    43.097927    1393.4782   -3467.1901   -91.733657    25430.353   -19696.994    4579.9635    1.1255244    27.554413    39.219975    39.187738    89.695517    89.673014    89.793362 
   39600      42181.7    120.04482    142.03709    1465.3171    3636.0871    540.49385    504.99062    281.37192    44.547651     1371.404   -3472.9906   -92.095267    25434.856   -19697.183    5188.7821    1.1299612    27.514426    39.215677    39.095926    89.712032    89.451688    89.813392 
   39800    42111.992    117.06273    866.92694    1428.9165    3637.9622    556.76502     496.0408     283.5211    43.334158    1379.6611   -3475.0336   -92.247712    25430.258   -19696.923    5599.3108    1.1318316    27.486239    39.304038    38.982537     89.92786    89.516156    89.877881 
   40000    42315.418    119.79298    811.50462     1462.243    3657.2278    560.08182    492.21471    279.24682    46.301553    1377.8449   -3466.0299   -91.804242    25441.715   -19696.302    5620.2722    1.1263905    27.514679    39.424431    39.010087    90.264535    89.775401    89.945014 
   40200    42211.167    119.02676    56.024214    1452.8903    3655.2203    568.06791    491.88615    292.34126    45.199222    1397.4945   -3469.5388   -92.030975    25423.909   -19696.645    5142.5994    1.1291724    27.468559    39.342389     39.06018    90.197448    90.115599    90.015031 
   40400    42184.204    116.97636    361.93095    1427.8623    3650.9564    560.34205    495.44928    286.05651    42.814638    1384.6625   -3455.2765   -92.089799    25418.562   -19696.992    5301.4835    1.1298941    27.486031    39.276541    39.076443    89.993147    90.366425    90.152826 
   40600    42280.522    120.44106    316.51129    1470.1539    3647.3031     549.7853    513.59686    279.07548    45.088002    1387.5456   -3481.0505   -91.880013    25437.994   -19697.186    5312.6235    1.1273201    27.524343    39.259153    39.129167    89.804823    90.443719    90.200355 
   40800    42143.435    123.09453    1177.0863    1502.5431     3624.515     547.7607    506.52917    274.03927    39.939591    1368.2687   -3472.4094   -92.178886    25425.481   -19696.826    5850.5175    1.1309872    27.532866    39.137335    39.110849    89.814722    90.314255    90.134472 
   41000    42299.305    118.36239   -121.78103    1444.7808    3647.6846    571.42847     503.8237    272.61374    42.311301    1390.1772   -3470.9513   -91.839213    25426.059     -19697.6    5017.3397    1.1268196    27.586124    39.193434    39.122772    90.018627    89.980542      90.0698 
   41200     42244.28    120.37479   -816.70657    1469.3449    3647.2865    571.88798    498.27335    268.27562    39.597066     1378.034   -3469.0888   -91.958837    25434.714   -19696.373    4613.4671    1.1282873    27.515503    39.282767    39.084546    90.272427    89.578238    89.997431 
   41400    42116.999    120.74353   -1231.3147    1473.8459    3634.8869    558.17007    497.44847    268.82285    41.927685    1366.3691   -3451.1241   -92.236746     25415.82   -19696.178    4352.4184    1.1316971    27.428537    39.268238     39.10659    90.196416    89.317906    89.779996 
   41600      42421.2    115.46957    -693.4158    1409.4697    3659.9158    574.83268    500.07114    273.84336    43.350664    1392.0978   -3466.6377   -91.575319    25430.819   -19696.363    4640.3902    1.1235817    27.486428     39.38176    39.193491    89.814649    89.367825     89.51064 
   41800    42183.852    122.12818     1190.336    1490.7475    3635.3559    539.44495    495.98373    278.69507    44.903453    1359.0272   -3454.6059   -92.090567    25427.054   -19696.119    5858.4078    1.1299035    27.483077    39.278689    39.080073    89.625212    89.681924    89.514084 
   42000    42249.765    119.38474    1445.7706      1457.26    3637.4458    546.35906    488.42169    280.38069    40.537333    1355.6988   -3473.8044   -91.946899    25452.679   -19697.128    5985.5455    1.1281408    27.555622    39.217042     39.09804    89.789508    90.101821    89.572194 
   42200    42232.284    117.33084   -514.18865    1432.1892    3614.3932    545.14998     489.5461     271.1375    46.579308    1352.4129   -3469.5856   -91.984958    25428.852   -19697.287    4729.8861    1.1286078    27.619315    39.148686    39.060012    90.028376     90.41623    89.689351 
   42400    42216.503    120.02174   -1740.9873    1465.0354    3660.9325    562.06299     508.7519    279.91371     44.04227    1394.7709   -3460.8581   -92.019344    25423.416   -19696.396    4054.0692    1.1290297    27.558476    39.180051    39.100372    90.218729    90.482569    89.934665 
   42600    42332.247    117.74824   -1702.6566    1437.2842    3681.1152    587.09284    509.24718    278.98239    46.171399    1421.4938   -3469.0967   -91.767745    25425.394   -19696.676    4067.2262    1.1259427    27.525564    39.297582    39.136173    90.063524    90.311907    90.189084 
   42800    42232.212    118.91889    642.05238    1451.5736    3619.9182    540.90185    496.87337    276.19788    46.224444    1360.1975   -3471.3368   -91.985116    25427.909   -19696.851    5466.9405    1.1286097    27.454301    39.322508    39.120107    89.800838    90.025493    90.279053 
   43000    42213.304    121.92794    1233.2577    1488.3032    3654.3513    565.89183     500.3014    281.33418    41.412699    1388.9401   -3464.0864   -92.026317    25426.046   -19696.549    5901.8945    1.1291152    27.487187    39.348497    39.030418     89.77086    89.764927    90.278827 
   43200    42412.018    118.06117   -278.72846    1441.1039    3662.9537    564.37301    508.21241    275.33964     42.02572    1389.9508   -3471.5987   -91.595144    25441.293   -19696.692    4931.6541     1.123825    27.583241    39.390045    39.036627    89.958448    89.638627    90.310326 
   43400    42136.938    122.21028   -378.97134    1491.7496     3623.946    543.33172    486.39884    280.87911    45.285731    1355.8954   -3458.2855   -92.193099    25422.683   -19696.346    4882.8087    1.1311616    27.549884    39.194366    39.024062    90.252824    89.707438    90.215417 
   43600    42323.398    121.96556   -417.03654    1488.7625    3666.8217    573.43741    484.80293    283.95304    48.237201    1390.4306   -3467.7895   -91.786934    25440.322   -19696.141    4898.1711    1.1261781    27.580568    39.191462    39.155257    90.243893    89.934644    89.986703 
   43800     42393.89    119.97617    730.03614    1464.4792    3649.0296    550.09759    502.28193    277.64534    39.902497    1369.9274   -3463.1678   -91.634311    25439.183   -19696.913    5564.8692    1.1243055    27.568561    39.167162     39.26202    90.043856    90.173576    89.771082 
   44000    42216.588    119.93904    1356.9008    1464.0259    3644.1586    545.23917    490.24162    279.09075    48.744701    1363.3162   -3456.8599   -92.019158    25434.277   -19696.575    5943.6088    1.1290274    27.455039    39.119136    39.309267    89.732916    90.394641    89.651319 
   44200    42373.774    121.09654    147.77869    1478.1549     3660.069    574.58031    487.69866     274.6071    37.406873    1374.2929   -3455.0405   -91.677812    25437.518   -19696.701    5229.5479    1.1248392    27.486613    39.235122    39.294385    89.822764    90.477547    89.568122 
   44400    42435.746    119.49318   -1243.8555    1458.5836    3644.1048     560.3193    496.59975    268.85919    45.239693    1371.0179   -3460.5098   -91.543929    25430.175   -19696.578    4332.8888    1.1231966    27.571948    39.352734    39.112063    90.020083     90.37623    89.576452 
   44600    42079.121     117.9361   -239.28457    1439.5773    3637.5055     568.2627    485.92364    275.61429    41.159164    1370.9598   -3453.0281   -92.319773    25416.268   -19696.694    4930.2385    1.1327158    27.589953     39.23455    38.873257    90.137415    90.089666    89.820217 
   44800    42445.719    120.67724   -620.28652    1473.0367    3644.6675    547.79134    500.54983    278.96779    42.290144    1369.5991   -3478.6046    -91.52242    25450.576   -19696.903    4733.7299    1.1229327    27.631526    39.443099    38.945886    90.122084      89.8017      89.9965 
   45000    42309.974    122.71947    872.73525     1497.965    3644.8493    545.25972    492.48938    278.23752    44.106638    1360.0933   -3445.4512   -91.816055    25427.087    -19696.88    5681.3335    1.1265354    27.548066    39.337076    39.044514    89.908533    89.654525     90.17348 
   45200    42374.327    117.89176    618.63666     1439.036    3645.4506    545.62364    490.28638     279.9044    45.099146    1360.9136   -3455.2021   -91.676616    25436.561   -19696.822    5466.7954    1.1248246    27.501838    39.297616    39.209551    89.848256     89.66692    90.349407 
   45400    42232.616    119.00475    817.40216    1452.6216    3654.1554    547.46722    489.06307    277.40914    44.550139    1358.4896   -3447.0729   -91.984236    25439.545   -19696.806    5610.2309    1.1285989    27.510769    39.142173    39.220483    89.901406    89.827941    90.388643 
   45600    42466.119    121.04476    -498.5188    1477.5228    3681.5473    551.93232    496.34055    295.01963    48.497636    1391.7901   -3457.5391   -91.478453    25443.785   -19696.488    4850.3251    1.1223932    27.614077    39.137862    39.293324     89.99516    90.074094     90.22906 
   45800    42352.694    118.72844    -511.3413    1449.2488    3638.7495    548.21479    482.09752    281.89009    45.924631     1358.127   -3446.7425   -91.723442    25423.455    -19696.09    4772.1578    1.1253991    27.627638    39.070858     39.23678    90.170507    90.320745    90.066147 
   46000     42271.36    118.93573   -357.01276    1451.7791    3653.0292    540.17677    499.95966    285.41637    43.531597    1369.0844    -3469.045   -91.899927    25449.629   -19696.639    4884.7155    1.1275645    27.611246    39.188934    39.067283    90.165396    90.448458    89.856412 
   46200    42273.355    120.46956    241.92391    1470.5017    3671.5964    549.81865    511.24824    279.05364    45.808939    1385.9295   -3449.4842   -91.895589    25431.735   -19696.584    5291.2474    1.1275113    27.584908    39.294472    39.001395    89.928132    90.384223    89.691487 
   46400    42492.664    117.30439   -129.86273    1431.8663    3625.9649    529.33381    503.13431    274.61411    43.899014    1350.9813    -3461.101   -91.421306    25432.168   -19696.083    4977.3537    1.1216921    27.563343    39.395429    39.134024    89.790763    90.098742    89.528422 
   46600    42207.438    121.95421    571.34865     1488.624    3610.3775     526.7465    502.95559    270.77232    41.895932    1342.3703   -3457.1587   -92.039107    25421.833   -19696.667    5450.6964    1.1292722    27.456431    39.333633    39.083928    89.838847    89.708711    89.609576 
   46800    42277.809    121.08251    176.18124    1477.9836    3657.9892    554.07358    492.39244    277.23303    47.989822    1371.6889   -3469.1779   -91.885909    25452.032   -19696.554    5244.6023    1.1273925    27.471884    39.340212    39.120935    90.129704    89.478887    89.794413 
   47000    42454.379    120.49605   -741.23614     1470.825    3624.2781    545.81213    483.65408    278.12305    44.162873    1351.7521   -3468.5074   -91.503749    25437.689   -19696.656    4636.1641    1.1227036    27.591399    39.245931    39.208107    90.263432    89.490848    89.996297 
   47200     42280.16    118.91384   -130.16565     1451.512    3640.4085    538.78266    506.71374    279.91542     44.88974    1370.3015   -3447.5973     -91.8808    25413.637   -19695.933    5011.6587    1.1273298    27.580754    39.128154    39.178844    90.136756    89.732778    90.262736 
   47400    42312.295    120.02845   -42.106042    1465.1174    3668.5592    559.49025    499.93842    289.38574    46.079104    1394.8935   -3473.1143   -91.811019    25443.639   -19696.859    5107.6937    1.1264736    27.587056    39.207908    39.120363    89.839654    90.085699    90.445918 
   47600    42296.309    120.00066    395.32171    1464.7781    3640.1719    538.02173    486.33968    290.61717    43.823504    1358.8021   -3455.2875   -91.845719    25433.521   -19696.864    5348.8035    1.1268994    27.569117    39.174109    39.166002    89.794441    90.349702    90.520875 
   47800    42435.242    118.93586   -831.26364    1451.7807    3590.7044    520.56558    491.55089    268.16213    43.359521    1323.6381   -3453.2947   -91.545015    25417.015   -19696.654    4528.0372    1.1232099     27.57179    39.259938    39.204205    89.894848    90.429418    90.340009 
   48000    42312.759    118.96489   -1063.7253    1452.1351    3667.1656    564.91495    491.93573    274.28943    41.032985    1372.1731   -3450.1393   -91.810011     25440.67   -19695.538    4462.8884    1.1264613    27.464301    39.412574    39.091037    90.166624    90.329219    90.051988 
   48200    42222.915     122.8716    109.62853     1499.822    3614.9144    533.33617    479.84606    272.00936    41.070547    1326.2621   -3452.4849   -92.005369    25437.799   -19696.662    5182.2433    1.1288582    27.506952    39.408686    38.951195     90.19026     90.12314    89.766497 
   48400     42414.96    117.63095    1117.5683    1435.8525    3630.6795    536.69544    498.39727    268.33682    43.215296    1346.6448   -3460.2199   -91.588792    25440.628   -19696.374     5757.836     1.123747     27.61785    39.339004     39.04123    89.975073    89.905205    89.492547 
   48600    42362.154    119.18845     1290.196     1454.864    3686.1544    549.91072    521.57249     281.8741    45.953317    1399.3106   -3454.3968    -91.70296    25437.102   -19695.862    5938.1125    1.1251478    27.610228    39.309779    39.033361    89.794333    89.763528    89.422238 
   48800    42257.112    118.80877    47.840988    1450.2294    3653.6689    545.04091    495.03069    280.12007    45.269583    1365.4613     -3453.99   -91.930913    25439.016   -19696.818    5133.3815    1.1279447    27.514001    39.232458    39.149303    89.762567    89.729456    89.523884 
   49000    42396.309    117.67493   -1408.7239    1436.3893    3628.7626    532.31012    506.13721    276.45338     45.14505    1360.0458   -3469.7428   -91.629082    25434.978   -19696.519    4194.1285    1.1242414    27.560707    39.168218     39.27438    89.962561    89.801792    89.795253 
[...]
 1988600    43069.014    120.25504    1671.0574    1467.8832    3646.8672    437.08183    450.16471    259.72447    43.122904    1190.0939   -3340.9233   -90.197906    25492.031   -19694.334    6164.3706    1.1066816    27.898192    39.164078    39.419756    90.127063    89.602486    90.148237 
 1988800    43200.915    118.38987    752.27345    1445.1162    3656.9761    449.15089    470.32009    257.96233    43.817322    1221.2506   -3361.1073   -89.922513     25490.76   -19693.928    5576.0554    1.1033026    27.934142    39.196085    39.457506    90.453236    89.947405     90.11941 
 1989000    43147.688     118.6302    286.97376    1448.0497    3705.7593      462.571     462.0789    265.87747    44.853553    1235.3809   -3321.1255   -90.033443    25485.196   -19693.692    5334.3914    1.1046637    27.854311    39.114006    39.604008    90.213918    90.209379    90.076514 
 1989200    43380.624    120.88196    -921.3589    1475.5356    3669.7075    448.68012    468.43393    267.10193    41.746921    1225.9629   -3348.4044   -89.550001    25485.385   -19693.236    4562.3344    1.0987321    27.815851    39.091159    39.896226    90.033224    90.304542    89.895981 
 1989400    43109.886    115.45658    559.73951    1409.3112    3657.4003    439.54831    467.34187    264.57751    43.187317     1214.655   -3320.6289   -90.112391    25457.285   -19693.911    5418.6272    1.1056323    27.768179    39.007232    39.800879    89.839395     90.22321    89.776378 
 1989600    43121.414    116.84783   -100.78252    1426.2934    3680.1986    454.30782    461.32079    260.96696    43.112463     1219.708    -3354.533     -90.0883    25508.734   -19693.711    5043.1117    1.1053368    27.807265    39.090054     39.67104    89.820266    90.129503    89.830813 
 1989800    43122.702    121.34451   -37.858712    1481.1817    3672.8439    455.42032    469.41983    261.28409    41.322625    1227.4469   -3338.0201    -90.08561    25477.538   -19694.121    5130.2163    1.1053038    27.866875    39.021654    39.656351    89.996544    90.009198    89.895719 
 1990000    43472.304    118.29986   -587.03542    1444.0175    3694.0374    451.60818    486.92851      257.478    41.758421    1237.7731   -3334.1836   -89.361146    25484.724   -19694.276     4765.875     1.096415    27.913163    39.121427    39.810112    90.201121    89.955638    89.841412 
 1990200    42985.153    119.34423    805.94574    1456.7655    3645.0281    442.51939    468.79747    251.74001    39.893461    1202.9503   -3329.0372   -90.373876    25465.241   -19694.126    5607.0365    1.1088406    27.759784    39.060626    39.642787    90.104434    89.937265    90.014044 
 1990400    43208.576    123.22977    165.73502    1504.1939    3649.5071    431.97401    459.61167    255.51643    39.017435    1186.1195   -3350.9548   -89.906571    25507.734   -19693.392    5258.1394     1.103107     27.76738    39.199173    39.697627    89.918878     89.85442    90.262405 
 1990600    43279.594    120.04338   -294.42913    1465.2996    3676.5247    462.05195    468.01949    266.77381    40.873851    1237.7191   -3340.7043   -89.759042    25473.568   -19694.058     4955.984    1.1012969     27.81274    39.153459      39.7453    89.653091    89.803963    90.300126 
 1990800    43087.734    118.27527   -258.94064    1443.7173      3655.91    452.95383    457.34015    257.28176    44.145012    1211.7207   -3335.2865   -90.158718    25473.845    -19694.37    4936.9114    1.1062008    27.784023     39.04237    39.722467     89.72739    89.812837    90.315661 
 1991000    43255.224    120.16695   -334.56229    1466.8079    3701.9004     466.5742    478.32303    268.22756    43.112292    1256.2371   -3349.2514   -89.809613    25489.333   -19694.418    4957.6553    1.1019174    27.834237    39.105379    39.740322    90.058303    89.903547    90.343561 
 1991200    43162.444    118.04142    543.64778    1440.8628    3683.4855    458.64591    476.87466    265.91347     41.72486    1243.1589   -3336.8688   -90.002663    25471.657   -19694.462    5466.5637     1.104286    27.867894    39.058306    39.655563    90.420331    89.971735    90.243418 
 1991400    43232.185    121.24326    457.76766    1479.9458    3643.4998    439.67167    469.15726    261.52301    39.669291    1210.0212   -3362.3976   -89.857474    25490.531   -19694.655    5412.0668    1.1025046    27.899936      39.1407    39.589893    90.357235    90.085823    89.993894 
 1991600    43125.729    121.99686    453.18947    1489.1445    3686.7817    449.18654      487.041    259.80836    41.789365    1237.8253    -3342.859   -90.079286    25485.381   -19693.565    5460.9573    1.1052262    27.871557    39.234854    39.437472    89.984756    90.172044    89.756523 
 1991800    43316.984    119.39563    306.65638    1457.3928    3665.2648    441.53485    473.26792    252.27296    40.140934    1207.2167   -3348.3858   -89.681565    25500.817   -19694.383    5316.3828    1.1003463    27.827048    39.340356    39.571208    89.547311    90.175388    89.594991 
 1992000    43005.523    120.66453    1506.0865    1472.8816    3665.1208    434.45108    486.06536    263.52029    41.879265     1225.916   -3343.4375    -90.33107    25476.501   -19693.858     6082.607    1.1083154    27.749846    39.156233    39.580946    89.592396    90.037776    89.568495 
 1992200    43328.121    120.76124   -67.384418    1474.0621    3686.7392    469.67394    472.25269    261.07728    42.313248    1245.3172   -3367.6802   -89.658512     25503.08   -19693.978    5118.2213    1.1000635    27.832372    39.176868     39.73765    90.040032    89.859872    89.595046 
 1992400     43148.51    119.63143   -439.70665    1460.2712     3695.311    454.88418    486.79787    266.26626    40.691166    1248.6395   -3342.9166   -90.031728     25482.88   -19693.292     4878.885    1.1046426    27.831026    39.022427    39.732067    90.365215    89.740365    89.711187 
 1992600    43194.524    119.19458   -639.45531    1454.9388    3652.8765    449.93634    472.47745    248.45249    43.907849    1214.7741   -3345.0363   -89.935819    25476.942   -19693.803    4704.9918    1.1034659    27.851175    39.048986    39.718037    90.312749    89.701574     89.99125 
 1992800     43180.27    120.77001   -151.69732    1474.1691    3696.9037    463.17772    478.19346    258.19244    39.309372     1238.873   -3330.9534   -89.965508    25482.837   -19693.853    5075.5429    1.1038302    27.861559    39.099022    39.638952    90.016114    89.739712    90.234118 
 1993000    43307.725    121.89105   -389.89143     1487.853    3661.9491    434.62147    488.44986    255.34281    41.648369    1220.0625   -3354.9303   -89.700738    25490.417     -19693.6    4903.5471    1.1005816    27.878023    39.219967    39.609953    89.877609    89.839013    90.286771 
 1993200    43073.958    120.57544    77.568291    1471.7941    3662.5885    456.58716    459.96027    254.00578    41.500183    1212.0534   -3337.8712   -90.187554    25482.139   -19693.732    5183.1101    1.1065545    27.793889    39.155583    39.580457    89.841652     90.01491    90.333898 
 1993400    43223.758    120.88662   -908.87803    1475.5926    3650.3063    449.60496    476.22278    255.94443    40.907522    1222.6797   -3371.1938   -89.874992    25492.719   -19693.898    4552.9656    1.1027196     27.78476    39.219873    39.666099    89.953072    90.225343    90.308633 
 1993600    43106.144    120.43154    119.32798    1470.0377    3683.4564    449.05899    460.51007    268.94059    44.474354     1222.984   -3324.7686   -90.120212     25478.64   -19693.399    5228.5107    1.1057283    27.832299    39.124419    39.587032     90.00307    90.400338    90.046787 
 1993800    43325.717    118.79478   -1166.0646    1450.0587    3717.7189    467.35752    485.89968    265.49665    43.200548    1261.9544   -3351.1121   -89.663487    25499.836    -19692.96    4430.9867    1.1001245    27.936609    39.079149    39.686848    89.880467    90.455005    89.726307 
 1994000    43116.045    117.43304   -234.14569    1433.4367    3671.3575    450.66964    474.47503    261.99269    46.233428    1233.3708   -3335.4752   -90.099519    25468.013   -19694.551    4957.5626    1.1054744    27.893527    39.013312     39.62314    90.009067    90.374439    89.493902 
 1994200    43185.169    119.97893    82.192639    1464.5129    3681.3393    446.30145    487.66384    260.51729    41.402049    1235.8846   -3352.6495   -89.955301     25492.34   -19694.236     5197.618    1.1037049    27.789592    39.238444    39.605788    90.065186     90.09535    89.491377 
 1994400    43092.057    121.26855     575.2146    1480.2545    3680.2146    455.63191    476.36269    253.72403    40.964253    1226.6829   -3347.1436   -90.149674    25493.899   -19693.224    5521.9647    1.1060898    27.719148    39.314951    39.544307    90.102829     89.66131    89.507706 
 1994600     43219.31      120.784    599.82876    1474.3399    3648.2798    434.20165    484.67249    254.46023    38.497766    1211.8321   -3337.4895   -89.884241    25467.929   -19693.992    5500.6974    1.1028331    27.812258    39.311129    39.532737    90.069271    89.353277    89.794007 
 1994800    43288.284    121.13476    260.47563    1478.6214    3686.5204    460.76285    474.13403    264.54409    40.603508    1240.0445   -3341.8553   -89.741023    25482.111    -19693.78     5329.584    1.1010759    27.858486    39.219005    39.623223    89.991952    89.288634    90.024321 
 1995000     43043.19    121.74401     556.0956    1486.0581    3665.5231    448.04402     484.1291    262.06492    41.585509    1235.8235   -3354.4608   -90.252021     25478.32   -19694.159    5500.6651    1.1073455    27.846625    39.069685    39.565505    89.920571    89.437005    90.224525 
 1995200    43228.993    120.47724   -253.28421    1470.5955    3663.0716    449.05728    477.50327    262.76951    39.003958     1228.334   -3346.8906   -89.864107    25475.809   -19694.181    4973.9839     1.102586    27.881469    39.076241    39.679335    89.935437    89.829315    90.483885 
 1995400    43276.262    119.30822   -26.174978    1456.3259    3716.6838    472.48536    481.34395    272.82741    42.910902    1269.5676   -3343.2587   -89.765953    25484.075     -19693.7    5156.4896    1.1013817    27.890454    39.107333    39.678711    89.905522    90.210623    90.522981 
 1995600     43102.38    120.53845    490.38988    1471.3426    3680.6588    454.72125    480.24901    253.56131    43.041655    1231.5732   -3348.0967   -90.128084    25490.677   -19693.494    5460.2625    1.1058249    27.815748    39.115436    39.617596    89.928599    90.466734    90.409165 
 1995800    43242.948      118.147   -286.77707    1442.1516    3678.5385    445.78583    478.04659    262.28155    40.503237    1226.6172   -3346.5233   -89.835107    25492.139   -19693.694     4939.833    1.1022302    27.808448    39.260824    39.609572    89.989005     90.53908    90.163917 
 1996000    43179.571    119.78918   -443.18991    1462.1967    3709.8099    470.18933     472.8129    265.35539    44.048431    1252.4061   -3328.5797   -89.966964    25478.667   -19692.684    4892.9167     1.103848    27.763275    39.281303      39.5942     90.13519    90.348771     89.90622 
 1996200    43270.711    118.02158   -197.72428    1440.6207    3686.9059    452.15623    478.57083    267.07436    43.180703    1240.9821   -3348.4214   -89.777468     25487.37   -19693.025    5002.7509     1.101523     27.78489    39.272599     39.65583      90.2178    89.989397    89.648332 
 1996400    43138.629    119.30887     819.9578    1456.3338    3670.7556    447.02629    472.88224      260.908    38.936952    1219.7535   -3336.0098   -90.052349    25480.958   -19693.946    5642.9516    1.1048957    27.855543    39.049722    39.661824    90.129657    89.614761    89.386215 
 1996600    43248.328    121.52622    180.72078    1483.3997    3688.8909    465.05841    470.88425    254.18687    42.175951    1232.3055   -3346.9127   -89.823932    25497.553   -19694.054    5286.2771    1.1020931    27.955006    38.939894     39.73347      89.9646    89.469161    89.412486 
 1996800    43174.652    121.89116     -463.148    1487.8543    3662.0989    465.78001    473.09826    248.82431    38.748341    1226.4509   -3340.8478   -89.977213     25469.81   -19693.315    4858.3283    1.1039738    27.976464    38.927101    39.647247     89.79954     89.52495    89.581531 
 1997000    43259.652    120.44591   -520.70212     1470.213     3681.651    451.08895    488.78788    259.12475    41.575602    1240.5772   -3360.4022   -89.800418    25495.012   -19693.536    4823.3542    1.1018046    27.908564    39.092611     39.65162    89.704636    89.791668    89.851732 
 1997200    43148.129    122.28981    368.18386    1492.7204    3679.8688    469.42355    464.04253    259.90779     40.60935    1233.9832   -3343.5663   -90.032523    25482.693   -19693.241    5404.2768    1.1046524    27.856827     39.13244    39.582127    89.788713    90.106939    90.175809 
 1997400    43357.409    119.15813   -76.930556    1454.4939    3660.9525     450.5029    464.74797    249.62795     39.85143    1204.7302   -3336.5635   -89.597949     25485.67   -19692.884    5066.8014    1.0993204    27.845368    39.255149    39.666882     90.01884    90.302045    90.353823 
 1997600     43134.52    121.04077    35.145317    1477.4741    3698.5614    463.99736     489.8188    264.65491    42.697042    1261.1681   -3343.4615   -90.060927    25475.142   -19694.287    5198.1444    1.1050009    27.804827    39.129295    39.647917    90.068415    90.352528    90.370272 
 1997800    43194.711    119.81599   -215.43628     1462.524    3698.5318    460.39186    484.37496     263.1657    47.036688    1254.9692   -3352.3748   -89.935429    25490.306   -19694.369    5025.3416    1.1034611     27.83615    39.126869    39.660513    90.046118    90.285567    90.312678 
 1998000    43194.265    118.14436    221.47544    1442.1193    3685.7331     447.5472    475.03612    255.49999    44.963987    1223.0473   -3339.7856   -89.936357    25495.645   -19693.174    5267.3695    1.1034725    27.881081    39.074058    39.649064    90.071424    90.178975    90.195028 
 1998200    43186.383    122.31241   -379.07311    1492.9963    3697.7855    480.54623    463.37661    266.45185    42.335045    1252.7097   -3346.3792   -89.952773    25485.712   -19694.257    4952.0305    1.1036739    27.822375    39.134261    39.664017    89.877835    90.018744    89.946352 
 1998400    43239.459     121.1427    -676.2909    1478.7183    3666.8219    449.84686    497.55668    257.07758    42.747456    1247.2286   -3342.4673   -89.842357    25456.089   -19694.028     4719.069    1.1023192    27.836089    39.188787    39.638262    90.035375    89.895927    89.766823 
 1998600    43213.669     119.5648   -305.85385    1459.4579    3678.6562    452.95118    470.97164    259.10824      41.5378    1224.5689   -3343.5938   -89.895974    25491.811    -19694.13    4945.3567     1.102977    27.820822    39.164286    39.661757    90.063846    89.829664    89.635733 
 1998800    43066.522    122.06084   -189.63178    1489.9255    3670.3941    462.89715    484.36262     250.3297    39.839299    1237.4288   -3349.2112   -90.203125    25475.619   -19693.442    5041.2155    1.1067456    27.764568    38.949884    39.825685    89.931316    89.732022    89.516084 
 1999000    43451.053    117.29318   -481.02134    1431.7295    3678.3739    463.89638    463.21755     253.8643     40.11153    1221.0898   -3341.3658    -89.40485    25491.975   -19693.325    4805.2855    1.0969512    27.848565    38.979473    40.029623    89.851468    89.703616    89.560973 
 1999200    43109.732    122.21274    182.21889    1491.7797    3669.2146    456.83461     474.5245    254.25178    44.278024    1229.8889   -3348.9947   -90.112714    25482.905   -19694.584    5275.5574    1.1056363    27.756212    38.892399    39.935668    89.881689    89.794502    89.677742 
 1999400    43028.383    119.87895    818.72806    1463.2925    3659.2846    436.76382    479.82343    263.52763    37.681752    1217.7966   -3357.2361   -90.283079    25491.901   -19693.177    5636.3493    1.1077266     27.76132    38.982106    39.760441    89.930074    89.944455    89.874652 
 1999600    43384.364    119.35004     436.3918    1456.8364     3620.966    439.14324    457.46451    248.62702    42.867913    1188.1027   -3364.4998    -89.54228    25490.408   -19693.045    5353.9147    1.0986374    28.005574    39.148463    39.570868    90.014326    90.079163    90.129264 
 1999800    43150.532    121.39646    232.47265    1481.8158    3661.9713    460.16028      466.431    258.68347    39.873469    1225.1482   -3345.1788   -90.027508    25475.832    -19693.83    5290.0836    1.1045909    27.964068     39.16351    39.401834    90.136809    90.174314    90.368151 
 2000000    43069.506    121.17439   -260.29613    1479.1052    3667.6742    468.67752    463.37601    259.97847    44.778295    1236.8103   -3364.9977   -90.196877    25490.681   -19694.819     4983.281    1.1066689    27.846754    39.330176    39.326703    90.026261    90.157402    90.498331 
 2000053    43041.641    118.72336    775.27471    1449.1868    3679.8532    444.42363    464.53348    264.01575    41.057727    1214.0306   -3346.1824    -90.25527    25506.112   -19694.107    5615.6941    1.1073854    27.821892    39.340692    39.325879    89.963252    90.141044    90.505085 
Loop time of 9246.45 on 24 procs for 2000000 steps with 4096 atoms

Performance: 18.688 ns/day, 1.284 hours/ns, 216.299 timesteps/s
99.9% CPU use with 24 MPI tasks x no OpenMP threads

MPI task timing breakdown:
Section |  min time  |  avg time  |  max time  |%varavg| %total
---------------------------------------------------------------
Pair    | 4238.1     | 4643.4     | 4934.9     | 331.3 | 50.22
Bond    | 105.2      | 112.57     | 119.11     |  40.5 |  1.22
Kspace  | 1982.2     | 2278.7     | 2684.3     | 480.1 | 24.64
Neigh   | 248.2      | 248.32     | 248.46     |   0.5 |  2.69
Comm    | 691.53     | 754.14     | 792.5      | 150.3 |  8.16
Output  | 1.2818     | 1.3144     | 1.9383     |  11.3 |  0.01
Modify  | 612.98     | 839.59     | 1243       | 896.4 |  9.08
Other   |            | 368.4      |            |       |  3.98

Nlocal:        170.667 ave         190 max         152 min
Histogram: 2 2 2 2 1 7 4 2 1 1
Nghost:        5976.67 ave        6040 max        5901 min
Histogram: 3 3 2 0 0 3 1 6 3 3
Neighs:        93204.8 ave      103841 max       82664 min
Histogram: 2 3 0 3 1 7 4 2 1 1

Total # of neighbors = 2236916
Ave neighs/atom = 546.12207
Ave special neighs/atom = 6.0000000
Neighbor list builds = 34655
Dangerous builds = 0

write_data      data.${NAME}
write_data      data.ar.120
System init for write_data ...
PPPM initialization ...
  using 12-bit tables for long-range coulomb (../kspace.cpp:340)
  G vector (1/distance) = 0.26483721
  grid = 32 32 32
  stencil order = 5
  estimated absolute RMS force accuracy = 0.00032621007
  estimated relative force accuracy = 9.8237194e-07
  using double precision KISS FFT
  3d grid and FFT values/proc = 5865 2048
WARNING: Fix recenter should come after all other integration fixes (../fix_recenter.cpp:133)

write_restart   restart.${NAME}
write_restart   restart.ar.120
System init for write_restart ...
PPPM initialization ...
  using 12-bit tables for long-range coulomb (../kspace.cpp:340)
  G vector (1/distance) = 0.26483721
  grid = 32 32 32
  stencil order = 5
  estimated absolute RMS force accuracy = 0.00032621007
  estimated relative force accuracy = 9.8237194e-07
  using double precision KISS FFT
  3d grid and FFT values/proc = 5865 2048
WARNING: Fix recenter should come after all other integration fixes (../fix_recenter.cpp:133)

Total wall time: 2:34:09
