LAMMPS data file
# Generated by Playmol on 2-Nov-2022 at 22:52:54

6 atom types
6 bond types
8 angle types
6 dihedral types
3 improper types

64 atoms
56 bonds
72 angles
64 dihedrals
24 impropers

-3.48499990 3.48499990 xlo xhi
-4.75699997 4.75699997 ylo yhi
-4.87599993 4.87599993 zlo zhi
0.00000000 0.00000000 0.00000000 xy xz yz

Masses

1 12.01 # c2
2 12.01 # ce
3 12.01 # c
4 16.00 # o
5 1.008 # h4
6 1.008 # ha

# Elements: C? C? C? O? H? H?

Pair Coeffs # lj/cut/coul/long

1 0.0860 3.39967 # c2
2 0.0860 3.39967 # ce
3 0.0860 3.39967 # c
4 0.2100 2.95992 # o
5 0.0150 2.51055 # h4
6 0.0150 2.59964 # ha

Bond Coeffs # harmonic

1 343.1 1.088 # c2 ha
2 547.3 1.346 # c2 ce
3 342.5 1.088 # ce ha
4 354.5 1.482 # c ce
5 310.7 1.112 # c h4
6 637.7 1.218 # c o

Angle Coeffs # harmonic

1 49.60 119.94 # c2 ce ha
2 65.50 120.42 # c ce c2
3 38.10 116.90 # ha c2 ha
4 49.50 120.45 # ce c2 ha
5 46.70 114.89 # ce c h4
6 68.80 123.20 # ce c o
7 46.50 116.46 # c ce ha
8 54.20 120.70 # h4 c o

Dihedral Coeffs # charmm

1 2.17499995 2 180 0 # h4 c ce c2
2 2.17499995 2 180 0 # o c ce c2
3 6.65000010 2 180 0 # ha c2 ce ha
4 6.65000010 2 180 0 # ha c2 ce c
5 2.17499995 2 180 0 # h4 c ce ha
6 2.17499995 2 180 0 # o c ce ha

Improper Coeffs # cvff

1 10.5 -1 2 # c ce h4 o
2 1.1 -1 2 # ce c c2 ha
3 1.1 -1 2 # c2 ha ha ce

Atoms

1 1 1 -0.383530 6.13569117 2.02743292 4.68096018 # C1
2 1 2 -0.169515 6.41449118 1.63355398 3.47951388 # C2
3 1 3 0.512161 5.98095703 0.359629005 2.99483895 # C3
4 1 4 -0.488411 6.19563293 -6.76449984E-02 1.90271294 # O4
5 1 5 -0.008385 5.47144985 -0.135098994 3.66285110 # H5
6 1 6 0.190890 5.62479019 1.47181594 5.27290583 # H11
7 1 6 0.190890 6.44027996 2.87798500 5.03203201 # H12
8 1 6 0.155900 6.89333010 2.18822002 2.86318707 # H2
9 2 1 -0.383530 0.834308982 7.48656702 5.07104015 # C1
10 2 2 -0.169515 0.555508971 7.88044596 6.27248621 # C2
11 2 3 0.512161 0.989042997 9.15437126 6.75716114 # C3
12 2 4 -0.488411 0.774366975 9.58164501 7.84928703 # O4
13 2 5 -0.008385 1.49855006 9.64909935 6.08914900 # H5
14 2 6 0.190890 1.34520996 8.04218388 4.47909403 # H11
15 2 6 0.190890 0.529720008 6.63601494 4.71996784 # H12
16 2 6 0.155900 7.66699985E-02 7.32577991 6.88881302 # H2
17 3 1 -0.383530 4.31930923 6.78443289 4.68096018 # C1
18 3 2 -0.169515 4.04050922 6.39055395 3.47951388 # C2
19 3 3 0.512161 4.47404289 5.11662912 2.99483895 # C3
20 3 4 -0.488411 4.25936699 4.68935490 1.90271294 # O4
21 3 5 -0.008385 4.98355007 4.62190104 3.66285110 # H5
22 3 6 0.190890 4.83021021 6.22881603 5.27290583 # H11
23 3 6 0.190890 4.01471996 7.63498497 5.03203201 # H12
24 3 6 0.155900 3.56167006 6.94521999 2.86318707 # H2
25 4 1 -0.383530 2.65069103 2.72956705 5.07104015 # C1
26 4 2 -0.169515 2.92949104 3.12344599 6.27248621 # C2
27 4 3 0.512161 2.49595690 4.39737082 6.75716114 # C3
28 4 4 -0.488411 2.71063304 4.82464504 7.84928703 # O4
29 4 5 -0.008385 1.98644996 4.89209890 6.08914900 # H5
30 4 6 0.190890 2.13979006 3.28518391 4.47909403 # H11
31 4 6 0.190890 2.95528007 1.87901497 4.71996784 # H12
32 4 6 0.155900 3.40832996 2.56877995 6.88881302 # H2
33 5 1 -0.383530 6.13569117 2.72956705 9.55696011 # C1
34 5 2 -0.169515 6.41449118 3.12344599 8.35551357 # C2
35 5 3 0.512161 5.98095703 4.39737082 7.87083912 # C3
36 5 4 -0.488411 6.19563293 4.82464504 6.77871323 # O4
37 5 5 -0.008385 5.47144985 4.89209890 8.53885078 # H5
38 5 6 0.190890 5.62479019 3.28518391 10.1489058 # H11
39 5 6 0.190890 6.44027996 1.87901497 9.90803242 # H12
40 5 6 0.155900 6.89333010 2.56877995 7.73918676 # H2
41 6 1 -0.383530 0.834308982 6.78443289 0.195040002 # C1
42 6 2 -0.169515 0.555508971 6.39055395 1.39648604 # C2
43 6 3 0.512161 0.989042997 5.11662912 1.88116097 # C3
44 6 4 -0.488411 0.774366975 4.68935490 2.97328711 # O4
45 6 5 -0.008385 1.49855006 4.62190104 1.21314895 # H5
46 6 6 0.190890 1.34520996 6.22881603 -0.396905988 # H11
47 6 6 0.190890 0.529720008 7.63498497 -0.156031996 # H12
48 6 6 0.155900 7.66699985E-02 6.94521999 2.01281309 # H2
49 7 1 -0.383530 4.31930923 7.48656702 9.55696011 # C1
50 7 2 -0.169515 4.04050922 7.88044596 8.35551357 # C2
51 7 3 0.512161 4.47404289 9.15437126 7.87083912 # C3
52 7 4 -0.488411 4.25936699 9.58164501 6.77871323 # O4
53 7 5 -0.008385 4.98355007 9.64909935 8.53885078 # H5
54 7 6 0.190890 4.83021021 8.04218388 10.1489058 # H11
55 7 6 0.190890 4.01471996 6.63601494 9.90803242 # H12
56 7 6 0.155900 3.56167006 7.32577991 7.73918676 # H2
57 8 1 -0.383530 2.65069103 2.02743292 0.195040002 # C1
58 8 2 -0.169515 2.92949104 1.63355398 1.39648604 # C2
59 8 3 0.512161 2.49595690 0.359629005 1.88116097 # C3
60 8 4 -0.488411 2.71063304 -6.76449984E-02 2.97328711 # O4
61 8 5 -0.008385 1.98644996 -0.135098994 1.21314895 # H5
62 8 6 0.190890 2.13979006 1.47181594 -0.396905988 # H11
63 8 6 0.190890 2.95528007 2.87798500 -0.156031996 # H12
64 8 6 0.155900 3.40832996 2.18822002 2.01281309 # H2

Bonds

1 2 1 2 # C1 C2
2 1 1 6 # C1 H11
3 1 1 7 # C1 H12
4 4 2 3 # C2 C3
5 3 2 8 # C2 H2
6 6 3 4 # C3 O4
7 5 3 5 # C3 H5
8 2 9 10 # C1 C2
9 1 9 14 # C1 H11
10 1 9 15 # C1 H12
11 4 10 11 # C2 C3
12 3 10 16 # C2 H2
13 6 11 12 # C3 O4
14 5 11 13 # C3 H5
15 2 17 18 # C1 C2
16 1 17 22 # C1 H11
17 1 17 23 # C1 H12
18 4 18 19 # C2 C3
19 3 18 24 # C2 H2
20 6 19 20 # C3 O4
21 5 19 21 # C3 H5
22 2 25 26 # C1 C2
23 1 25 30 # C1 H11
24 1 25 31 # C1 H12
25 4 26 27 # C2 C3
26 3 26 32 # C2 H2
27 6 27 28 # C3 O4
28 5 27 29 # C3 H5
29 2 33 34 # C1 C2
30 1 33 38 # C1 H11
31 1 33 39 # C1 H12
32 4 34 35 # C2 C3
33 3 34 40 # C2 H2
34 6 35 36 # C3 O4
35 5 35 37 # C3 H5
36 2 41 42 # C1 C2
37 1 41 46 # C1 H11
38 1 41 47 # C1 H12
39 4 42 43 # C2 C3
40 3 42 48 # C2 H2
41 6 43 44 # C3 O4
42 5 43 45 # C3 H5
43 2 49 50 # C1 C2
44 1 49 54 # C1 H11
45 1 49 55 # C1 H12
46 4 50 51 # C2 C3
47 3 50 56 # C2 H2
48 6 51 52 # C3 O4
49 5 51 53 # C3 H5
50 2 57 58 # C1 C2
51 1 57 62 # C1 H11
52 1 57 63 # C1 H12
53 4 58 59 # C2 C3
54 3 58 64 # C2 H2
55 6 59 60 # C3 O4
56 5 59 61 # C3 H5

Angles

1 4 2 1 6 # C2 C1 H11
2 4 2 1 7 # C2 C1 H12
3 3 6 1 7 # H11 C1 H12
4 2 1 2 3 # C1 C2 C3
5 1 1 2 8 # C1 C2 H2
6 7 3 2 8 # C3 C2 H2
7 6 2 3 4 # C2 C3 O4
8 5 2 3 5 # C2 C3 H5
9 8 4 3 5 # O4 C3 H5
10 4 10 9 14 # C2 C1 H11
11 4 10 9 15 # C2 C1 H12
12 3 14 9 15 # H11 C1 H12
13 2 9 10 11 # C1 C2 C3
14 1 9 10 16 # C1 C2 H2
15 7 11 10 16 # C3 C2 H2
16 6 10 11 12 # C2 C3 O4
17 5 10 11 13 # C2 C3 H5
18 8 12 11 13 # O4 C3 H5
19 4 18 17 22 # C2 C1 H11
20 4 18 17 23 # C2 C1 H12
21 3 22 17 23 # H11 C1 H12
22 2 17 18 19 # C1 C2 C3
23 1 17 18 24 # C1 C2 H2
24 7 19 18 24 # C3 C2 H2
25 6 18 19 20 # C2 C3 O4
26 5 18 19 21 # C2 C3 H5
27 8 20 19 21 # O4 C3 H5
28 4 26 25 30 # C2 C1 H11
29 4 26 25 31 # C2 C1 H12
30 3 30 25 31 # H11 C1 H12
31 2 25 26 27 # C1 C2 C3
32 1 25 26 32 # C1 C2 H2
33 7 27 26 32 # C3 C2 H2
34 6 26 27 28 # C2 C3 O4
35 5 26 27 29 # C2 C3 H5
36 8 28 27 29 # O4 C3 H5
37 4 34 33 38 # C2 C1 H11
38 4 34 33 39 # C2 C1 H12
39 3 38 33 39 # H11 C1 H12
40 2 33 34 35 # C1 C2 C3
41 1 33 34 40 # C1 C2 H2
42 7 35 34 40 # C3 C2 H2
43 6 34 35 36 # C2 C3 O4
44 5 34 35 37 # C2 C3 H5
45 8 36 35 37 # O4 C3 H5
46 4 42 41 46 # C2 C1 H11
47 4 42 41 47 # C2 C1 H12
48 3 46 41 47 # H11 C1 H12
49 2 41 42 43 # C1 C2 C3
50 1 41 42 48 # C1 C2 H2
51 7 43 42 48 # C3 C2 H2
52 6 42 43 44 # C2 C3 O4
53 5 42 43 45 # C2 C3 H5
54 8 44 43 45 # O4 C3 H5
55 4 50 49 54 # C2 C1 H11
56 4 50 49 55 # C2 C1 H12
57 3 54 49 55 # H11 C1 H12
58 2 49 50 51 # C1 C2 C3
59 1 49 50 56 # C1 C2 H2
60 7 51 50 56 # C3 C2 H2
61 6 50 51 52 # C2 C3 O4
62 5 50 51 53 # C2 C3 H5
63 8 52 51 53 # O4 C3 H5
64 4 58 57 62 # C2 C1 H11
65 4 58 57 63 # C2 C1 H12
66 3 62 57 63 # H11 C1 H12
67 2 57 58 59 # C1 C2 C3
68 1 57 58 64 # C1 C2 H2
69 7 59 58 64 # C3 C2 H2
70 6 58 59 60 # C2 C3 O4
71 5 58 59 61 # C2 C3 H5
72 8 60 59 61 # O4 C3 H5

Dihedrals

1 4 6 1 2 3 # H11 C1 C2 C3
2 4 7 1 2 3 # H12 C1 C2 C3
3 3 6 1 2 8 # H11 C1 C2 H2
4 3 7 1 2 8 # H12 C1 C2 H2
5 2 4 3 2 1 # O4 C3 C2 C1
6 6 4 3 2 8 # O4 C3 C2 H2
7 1 5 3 2 1 # H5 C3 C2 C1
8 5 5 3 2 8 # H5 C3 C2 H2
9 4 14 9 10 11 # H11 C1 C2 C3
10 4 15 9 10 11 # H12 C1 C2 C3
11 3 14 9 10 16 # H11 C1 C2 H2
12 3 15 9 10 16 # H12 C1 C2 H2
13 2 12 11 10 9 # O4 C3 C2 C1
14 6 12 11 10 16 # O4 C3 C2 H2
15 1 13 11 10 9 # H5 C3 C2 C1
16 5 13 11 10 16 # H5 C3 C2 H2
17 4 22 17 18 19 # H11 C1 C2 C3
18 4 23 17 18 19 # H12 C1 C2 C3
19 3 22 17 18 24 # H11 C1 C2 H2
20 3 23 17 18 24 # H12 C1 C2 H2
21 2 20 19 18 17 # O4 C3 C2 C1
22 6 20 19 18 24 # O4 C3 C2 H2
23 1 21 19 18 17 # H5 C3 C2 C1
24 5 21 19 18 24 # H5 C3 C2 H2
25 4 30 25 26 27 # H11 C1 C2 C3
26 4 31 25 26 27 # H12 C1 C2 C3
27 3 30 25 26 32 # H11 C1 C2 H2
28 3 31 25 26 32 # H12 C1 C2 H2
29 2 28 27 26 25 # O4 C3 C2 C1
30 6 28 27 26 32 # O4 C3 C2 H2
31 1 29 27 26 25 # H5 C3 C2 C1
32 5 29 27 26 32 # H5 C3 C2 H2
33 4 38 33 34 35 # H11 C1 C2 C3
34 4 39 33 34 35 # H12 C1 C2 C3
35 3 38 33 34 40 # H11 C1 C2 H2
36 3 39 33 34 40 # H12 C1 C2 H2
37 2 36 35 34 33 # O4 C3 C2 C1
38 6 36 35 34 40 # O4 C3 C2 H2
39 1 37 35 34 33 # H5 C3 C2 C1
40 5 37 35 34 40 # H5 C3 C2 H2
41 4 46 41 42 43 # H11 C1 C2 C3
42 4 47 41 42 43 # H12 C1 C2 C3
43 3 46 41 42 48 # H11 C1 C2 H2
44 3 47 41 42 48 # H12 C1 C2 H2
45 2 44 43 42 41 # O4 C3 C2 C1
46 6 44 43 42 48 # O4 C3 C2 H2
47 1 45 43 42 41 # H5 C3 C2 C1
48 5 45 43 42 48 # H5 C3 C2 H2
49 4 54 49 50 51 # H11 C1 C2 C3
50 4 55 49 50 51 # H12 C1 C2 C3
51 3 54 49 50 56 # H11 C1 C2 H2
52 3 55 49 50 56 # H12 C1 C2 H2
53 2 52 51 50 49 # O4 C3 C2 C1
54 6 52 51 50 56 # O4 C3 C2 H2
55 1 53 51 50 49 # H5 C3 C2 C1
56 5 53 51 50 56 # H5 C3 C2 H2
57 4 62 57 58 59 # H11 C1 C2 C3
58 4 63 57 58 59 # H12 C1 C2 C3
59 3 62 57 58 64 # H11 C1 C2 H2
60 3 63 57 58 64 # H12 C1 C2 H2
61 2 60 59 58 57 # O4 C3 C2 C1
62 6 60 59 58 64 # O4 C3 C2 H2
63 1 61 59 58 57 # H5 C3 C2 C1
64 5 61 59 58 64 # H5 C3 C2 H2

Impropers

1 3 1 7 6 2 # C1 H12 H11 C2
2 2 2 3 1 8 # C2 C3 C1 H2
3 1 3 2 5 4 # C3 C2 H5 O4
4 3 9 15 14 10 # C1 H12 H11 C2
5 2 10 11 9 16 # C2 C3 C1 H2
6 1 11 10 13 12 # C3 C2 H5 O4
7 3 17 23 22 18 # C1 H12 H11 C2
8 2 18 19 17 24 # C2 C3 C1 H2
9 1 19 18 21 20 # C3 C2 H5 O4
10 3 25 31 30 26 # C1 H12 H11 C2
11 2 26 27 25 32 # C2 C3 C1 H2
12 1 27 26 29 28 # C3 C2 H5 O4
13 3 33 39 38 34 # C1 H12 H11 C2
14 2 34 35 33 40 # C2 C3 C1 H2
15 1 35 34 37 36 # C3 C2 H5 O4
16 3 41 47 46 42 # C1 H12 H11 C2
17 2 42 43 41 48 # C2 C3 C1 H2
18 1 43 42 45 44 # C3 C2 H5 O4
19 3 49 55 54 50 # C1 H12 H11 C2
20 2 50 51 49 56 # C2 C3 C1 H2
21 1 51 50 53 52 # C3 C2 H5 O4
22 3 57 63 62 58 # C1 H12 H11 C2
23 2 58 59 57 64 # C2 C3 C1 H2
24 1 59 58 61 60 # C3 C2 H5 O4
