LAMMPS data file via write_data, version 29 Sep 2021, timestep = 2000053

4096 atoms
6 atom types
3584 bonds
6 bond types
4608 angles
8 angle types
4096 dihedrals
6 dihedral types
1536 impropers
3 improper types

-3.4559461501660493 24.36594555016231 xlo xhi
-5.3985820388893355 33.940581851745634 ylo yhi
-5.034876176369863 34.290875756369154 zlo zhi
-0.346799428156879 -0.0968080144926955 0.024370343946425094 xy xz yz

Masses

1 12.01
2 12.01
3 12.01
4 16
5 1.008
6 1.008

Pair Coeffs # lj/cut/coul/long

1 0.086 3.39967
2 0.086 3.39967
3 0.086 3.39967
4 0.21 2.95992
5 0.015 2.51055
6 0.015 2.59964

Bond Coeffs # harmonic

1 343.1 1.088
2 547.3 1.346
3 342.5 1.088
4 354.5 1.482
5 310.7 1.112
6 637.7 1.218

Angle Coeffs # harmonic

1 49.6 119.94
2 65.5 120.42
3 38.1 116.9
4 49.5 120.45
5 46.7 114.89
6 68.8 123.2
7 46.5 116.46
8 54.2 120.7

Dihedral Coeffs # charmm

1 2.175 2 180 0
2 2.175 2 180 0
3 6.65 2 180 0
4 6.65 2 180 0
5 2.175 2 180 0
6 2.175 2 180 0

Improper Coeffs # cvff

1 10.5 -1 2
2 1.1 -1 2
3 1.1 -1 2

Atoms # full

3869 484 5 -0.008385 2.6602159812358463 -5.321390908043324 -4.2908229852837465 0 1 1
811 102 3 0.512161 1.4756402988412196 -5.1557994810204475 1.7040305716930586 0 1 0
3108 389 4 -0.488411 6.471234834710296 4.2194128714781005 -2.9691451687117616 0 0 1
3121 391 1 -0.38353 4.568641542218026 6.704378366911973 -0.6328817369178834 0 0 1
3286 411 6 0.19089 -1.6314972491650361 6.22862604240207 -4.645120934204397 1 0 1
3270 409 6 0.19089 -1.0323463815239915 1.4230316346137606 -4.390888883093755 1 0 1
47 6 6 0.19089 0.16316248165988512 7.409367652741995 -0.5438843664294133 0 0 0
108 14 4 -0.488411 8.064051326057065 4.043868331869943 2.5597667978209806 0 0 0
3300 413 4 -0.488411 -0.6011751077854113 4.365856873637357 -2.881710761641468 1 0 1
126 16 6 0.19089 9.492256839618056 1.0745203921616246 -0.7326980941609351 0 0 0
3849 482 1 -0.38353 1.1359712620878364 -2.950287062244111 -4.858860052423976 0 1 1
64 8 6 0.1559 4.081162292029957 1.5133113797050255 1.9607770381056655 0 0 0
3109 389 5 -0.008385 5.726721954676508 4.159091868769236 -1.0554039946782354 0 0 1
979 123 3 0.512161 -2.327028636299999 -5.328672070743819 3.2919786150179497 1 1 0
3917 490 5 -0.008385 9.305851539142553 -1.1453714061888958 -3.9476249366169993 0 1 1
4081 511 1 -0.38353 -2.390734885316837 -2.9747890669192754 -0.48116225417924596 1 1 1
58 8 2 -0.169515 3.435794684371375 1.0722165639768289 1.1920675668421152 0 0 0
3889 487 1 -0.38353 4.494772423749027 -2.7238394942407895 -0.16591734079509557 0 1 1
3890 487 2 -0.169515 4.37080018351467 -2.3925965359811396 -1.4412329537650783 0 1 1
3896 487 6 0.1559 3.872276960675042 -3.0834598906276063 -2.1403282175534257 0 1 1
57 8 1 -0.38353 3.263246237127306 1.6433216784953562 -0.020591066209838083 0 0 0
45 6 5 -0.008385 1.7618498770120876 4.203207865807029 0.5335679887332745 0 0 0
3301 413 5 -0.008385 -0.9772887597498827 4.524332252925472 -0.8732184440464517 1 0 1
94 12 6 0.19089 9.43148822256554 2.284604931870371 4.055864262439721 0 0 0
4069 509 5 -0.008385 -1.0378403959792255 -5.305450431946201 -0.9503928727573951 1 1 1
3320 415 6 0.1559 -2.880114425524298 6.53600990078071 -2.504843885687016 1 0 1
3271 409 6 0.19089 0.12239704579756294 2.8240300487108065 -4.783838093216318 1 0 1
3853 482 5 -0.008385 2.14529704605855 -0.5681389488856707 -4.171713237767727 0 1 1
3127 391 6 0.19089 4.2693570242856484 5.6688080605490345 -0.5213404250371845 0 0 1
3895 487 6 0.19089 4.131172548426755 -3.6850908663549555 0.21091838828256293 0 1 1
4087 511 6 0.19089 -2.781256112887553 -3.9258424399018113 -0.19380345570175805 1 1 1
3094 387 6 0.19089 5.052757823091175 5.971585664083516 -4.521499741843658 0 0 1
3146 394 2 -0.169515 7.723728839482824 7.566365592235368 -3.6096173759361685 0 0 1
18 3 2 -0.169515 4.215004868717583 5.951382162717202 3.222502997905014 0 0 0
19 3 3 0.512161 4.891789093796641 4.672301233367142 2.7772892263453173 0 0 0
24 3 6 0.1559 3.595277775899957 6.450305477658404 2.4823507021242976 0 0 0
783 98 6 0.19089 0.5819514520566011 -3.862048142094255 4.561486007518667 0 1 0
786 99 2 -0.169515 4.393355696383899 -3.931718991408837 3.913792014142695 0 1 0
3078 385 6 0.19089 6.551271966461309 0.8746028654472973 -4.393152651324218 0 0 1
792 99 6 0.1559 3.6987443469118197 -3.4118640903287547 3.2405400577447896 0 1 0
209 27 1 -0.38353 -2.465524670215917 6.4806237730151395 4.527025671739462 1 0 0
3314 415 2 -0.169515 -2.5669343509002247 7.229182768249828 -1.667956032141623 1 0 1
4082 511 2 -0.169515 -2.601068739559534 -2.359512747227991 -1.6591923582923331 1 1 1
3079 385 6 0.19089 7.1038295908518805 2.5587641481795886 -5.015591020601118 0 0 1
211 27 3 0.512161 -2.1271219782733386 4.551890034476976 2.912130792546039 1 0 0
3098 388 2 -0.169515 3.475840463882111 2.4154606050742506 -3.6943938381932515 0 0 1
30 4 6 0.19089 2.499303390110276 2.591186215193628 3.612924557932848 0 0 0
216 27 6 0.1559 -3.313592716335743 6.339065133727123 2.5848090479565435 1 0 0
4084 511 4 -0.488411 -2.268705958597832 -0.428474495210005 -2.9891129630109132 1 1 1
3892 487 4 -0.488411 4.4982602045378135 -0.7907088123009345 -3.1609034352942986 0 1 1
31 4 6 0.19089 3.3124684361593983 1.0237420346639299 4.254173328302587 0 0 0
787 99 3 0.512161 5.037707885938424 -5.165114611098153 3.3714394042065177 0 1 0
3891 487 3 0.512161 4.74866195305969 -1.06123298345232 -1.9913970174483748 0 1 1
3893 487 5 -0.008385 5.219860200077109 -0.376565578480788 -1.2662471559494648 0 1 1
4083 511 3 0.512161 -2.0570336250817167 -1.0067475306279459 -1.93049582160973 1 1 1
4085 511 5 -0.008385 -1.5731663703861658 -0.5705633013712754 -1.0968008291151081 1 1 1
4 1 4 -0.488411 6.50936340260605 -1.0985374708519977 2.165481765698278 0 0 0
4055 507 6 0.19089 -2.7584822664252306 -2.2822492183923555 -4.882591924059052 1 1 1
3894 487 6 0.19089 4.890123871833806 -2.0100053704557004 0.5039055420731131 0 1 1
196 25 4 -0.488411 -0.30957835698872493 -0.5222277372951885 2.098826377190778 1 0 0
111 14 6 0.19089 7.372841676903663 7.142892046155751 -0.5856901482312695 0 0 0
3101 388 5 -0.008385 2.1917675457836445 4.0693054499113135 -4.178159325665643 0 0 1
3 1 3 0.512161 6.298555779777134 -0.46460694462700225 3.1685845969192545 0 0 0
5 1 5 -0.008385 5.703154081061905 -0.8447274614838776 4.014381742513169 0 0 0
195 25 3 0.512161 -0.5966249640174439 -0.1646517808946264 3.2361962508248006 1 0 0
197 25 5 -0.008385 -1.1783138232017913 -0.8713718631816016 3.8702578652198962 1 0 0
984 123 6 0.1559 -2.5530601239623243 -3.2021942448779375 2.7536988137220595 1 1 0
3313 415 1 -0.38353 -2.530774908639856 6.813683578658715 -0.375409729859574 1 0 1
3105 389 1 -0.38353 6.574224664525033 1.6538650883917985 -0.5333984589264569 0 0 1
3106 389 2 -0.169515 6.855966596334239 2.353048750617022 -1.6264889989979516 0 0 1
3107 389 3 0.512161 6.351744979699385 3.699947247529897 -1.8734592907280394 0 0 1
3112 389 6 0.1559 7.4561972377313115 1.9074718166657636 -2.4061672719997125 0 0 1
3297 413 1 -0.38353 -0.28072235186087235 1.9807438702196212 -0.20959879817141225 1 0 1
3298 413 2 -0.169515 -0.14371110364823192 2.5487417076423036 -1.4556255036757708 1 0 1
3299 413 3 0.512161 -0.5965291236645291 3.9284569026866016 -1.7444236181288209 1 0 1
3304 413 6 0.1559 0.24900825934775783 1.9379786615441583 -2.2883633947181985 1 0 1
20 3 4 -0.488411 4.8625540365254505 4.246255360402296 1.6034806938015 0 0 0
3110 389 6 0.19089 5.9279423066016115 2.0575500871202204 0.22833142755212066 0 0 1
3111 389 6 0.19089 7.020233297139443 0.6905417758399768 -0.38466164968284566 0 0 1
3919 490 6 0.19089 7.346676396928213 -4.2350740895102374 -4.782960742267101 0 1 1
3302 413 6 0.19089 -0.8319779856868528 2.5009804027644202 0.6010584726464216 1 0 1
3303 413 6 0.19089 0.015442349835085079 0.9333824706480653 -0.0032101559756982923 1 0 1
3145 394 1 -0.38353 7.930111797046914 7.099295215523513 -4.853664455741021 0 0 1
2 1 2 -0.169515 6.816332398589257 0.9248254594335314 3.280317311304856 0 0 0
8 1 6 0.1559 7.4565437771991245 1.268226734641548 2.485892631481364 0 0 0
21 3 5 -0.008385 5.485218958962051 4.219322701337113 3.588732036564828 0 0 0
3163 396 3 0.512161 9.75063407940268 3.601523192579979 -3.5352105249512156 0 0 1
194 25 2 -0.169515 -0.3547195319564129 1.2077777157256335 3.7445057557131367 1 0 0
200 25 6 0.1559 0.12956804486629903 1.8892939243141376 3.0828321887088403 1 0 0
213 27 5 -0.008385 -1.3291303641921628 4.106306564224109 3.566058227993466 1 0 0
3104 388 6 0.1559 4.024401601536327 1.8986702308545018 -2.888731496497658 0 0 1
124 16 4 -0.488411 10.048743720481681 -0.6984274046730743 2.7698269172502057 0 0 0
3122 391 2 -0.169515 4.253741930714796 7.419693579585783 -1.768981962153232 0 0 1
121 16 1 -0.38353 10.26144895048348 1.46053819554474 -0.11916170914975055 0 0 0
3862 483 6 0.19089 5.121303305166235 -3.5535428994124203 -4.422663580175617 0 1 1
3850 482 2 -0.169515 0.9726898857308335 -2.359505777191551 -3.6485191683471125 0 1 1
3856 482 6 0.1559 0.4228563535980663 -2.8630860950291814 -2.817120246061006 0 1 1
44 6 4 -0.488411 1.122861893916057 4.292605724957591 2.4993262102258624 0 0 0
4088 511 6 0.1559 -3.176683102071715 -2.890886955266075 -2.4294959260068483 1 1 1
25 4 1 -0.38353 2.9353400849093427 2.0391399098353293 4.439387830603035 0 0 0
978 123 2 -0.169515 -2.4081896197650163 -3.883529789190998 3.634251913680435 1 1 0
3165 396 5 -0.008385 9.08424897620745 3.9858645560856125 -4.352761074794515 0 0 1
109 14 5 -0.008385 8.97427198167174 4.000686220090172 0.707604957500056 0 0 0
3914 490 2 -0.169515 7.804474854588131 -2.6884553399335633 -3.356391150810378 0 1 1
3920 490 6 0.1559 7.166078620803956 -3.0386494069988084 -2.53216260418268 0 1 1
3088 386 6 0.1559 0.014756556436855028 7.044124807888922 -2.9907953867413353 0 0 1
46 6 6 0.19089 1.3111231323372623 5.994687597482356 -1.022141849077773 0 0 0
4086 511 6 0.19089 -1.84033652687286 -2.4973774452282558 0.3458146514666236 1 1 1
3100 388 4 -0.488411 2.952969572057916 4.2541167705757825 -2.248450853398509 0 0 1
814 102 6 0.19089 1.7539274351422032 -4.023616819865367 -0.8432069722091722 0 1 0
815 102 6 0.19089 0.8874717367821177 -2.422428909687055 -0.5196128196277279 0 1 0
846 106 6 0.19089 8.545425903513353 -1.8561346542292547 4.239738426480216 0 1 0
110 14 6 0.19089 8.558426164678409 5.778884896737269 -0.9232747485244044 0 0 0
63 8 6 0.19089 3.7333318113442626 2.544232953667481 -0.3844276425909028 0 0 0
3128 391 6 0.1559 3.702313461400287 6.946340143811653 -2.6094789153665063 0 0 1
878 110 6 0.19089 8.383351282130246 -4.230567831072511 -0.7889574234251064 0 1 0
879 110 6 0.19089 7.729914494727476 -2.5679089246756077 -0.3032820705664738 0 1 0
212 27 4 -0.488411 -2.409727636419782 4.026241864991141 1.8698774186325595 1 0 0
41 6 1 -0.38353 0.6671581642618785 6.5173093238648505 -0.27453115641180315 0 0 0
42 6 2 -0.169515 0.5366063294549717 6.017383238645666 0.9738558648075406 0 0 0
43 6 3 0.512161 1.2370000314686393 4.7514947160786285 1.3703374700474242 0 0 0
48 6 6 0.1559 -0.05364463772641903 6.536895607094209 1.7445363849218873 0 0 0
809 102 1 -0.38353 1.166952468361652 -3.429373703840993 -0.16372819331095467 0 1 0
810 102 2 -0.169515 1.05781263210244 -3.824599514585792 1.137689159551507 0 1 0
3099 388 3 0.512161 2.9037124059421435 3.72950865822159 -3.348795306465878 0 0 1
816 102 6 0.1559 0.4670194083140964 -3.217229768186688 1.8080403713362534 0 1 0
105 14 1 -0.38353 7.849661797288798 6.2401055319318 -0.26210277921260694 0 0 0
106 14 2 -0.169515 7.6100339701960085 5.733570383474353 0.9552949676250853 0 0 0
107 14 3 0.512161 8.195196946909563 4.447383165158296 1.3976450979426875 0 0 0
112 14 6 0.1559 6.868883666171348 6.172830952076525 1.6276642781388313 0 0 0
873 110 1 -0.38353 7.968352474893717 -3.6031528752115825 -0.027207830031949598 0 1 0
874 110 2 -0.169515 7.818408102663241 -4.056354994309988 1.2240922550328923 0 1 0
23 3 6 0.19089 3.898871314374042 7.504866638685886 4.699715686654368 0 0 0
880 110 6 0.1559 7.417099257934439 -3.45522727700272 2.0211715451617565 0 1 0
3082 386 2 -0.169515 0.6945169265579549 7.575610386547822 -3.6491642742118877 0 0 1
3081 386 1 -0.38353 1.1127228429494211 6.944316993261296 -4.777390312578387 0 0 1
3296 412 6 0.1559 -3.093548198622352 2.0540284573136365 -2.689653086538943 1 0 1
14 2 6 0.19089 1.4594879988572007 7.116584126697434 4.107204835417335 0 0 0
3851 482 3 0.512161 1.5621787231343616 -1.0271363770744468 -3.33815479543956 0 1 1
256 32 6 0.1559 -3.04362039286589 1.6931410053545966 2.1429030593189538 1 0 0
3915 490 3 0.512161 8.610052627499815 -1.4709658520498752 -3.130210962848489 0 1 1
3152 394 6 0.1559 7.239738820318715 6.927177349682662 -2.894766254405291 0 0 1
62 8 6 0.19089 2.625168752025721 1.1921129626267293 -0.7992036291465539 0 0 0
3852 482 4 -0.488411 1.4187771975111314 -0.5009058078458066 -2.2556077165874053 0 1 1
7 1 6 0.19089 7.109603749854918 2.6371762478134713 4.5258437012635735 0 0 0
3916 490 4 -0.488411 8.417441867493103 -0.7877469548467717 -2.1318772668692505 0 1 1
59 8 3 0.512161 2.8344189946137712 -0.23508150875975797 1.5280226818144316 0 0 0
61 8 5 -0.008385 2.1893175057802017 -0.6991008967888073 0.7500985361593493 0 0 0
123 16 3 0.512161 9.78986491661423 -0.24140841975865168 1.6391328764961992 0 0 0
125 16 5 -0.008385 8.956076288706027 -0.6791388178334978 1.025234116372081 0 0 0
1 1 1 -0.38353 6.595058911477189 1.6683844894402409 4.373651191061748 0 0 0
60 8 4 -0.488411 3.026175317732082 -0.7771105359423744 2.59340449999939 0 0 0
782 98 6 0.19089 1.6972471451956377 -2.450471628135587 4.181736403773053 0 1 0
3318 415 6 0.19089 -2.28979304487972 7.464469704516583 0.4187053642017817 1 0 1
3164 396 4 -0.488411 9.919527187880396 4.20674570187772 -2.4583242140334054 0 0 1
3126 391 6 0.19089 5.124397725578387 7.130887414884919 0.234787479667955 0 0 1
210 27 2 -0.169515 -2.6363955244293105 5.872658161409602 3.332786869157447 1 0 0
4054 507 6 0.19089 -1.6628793169526765 -3.6139820436837784 -4.313663318076005 1 1 1
17 3 1 -0.38353 4.339608451067849 6.546101303411037 4.440989860599926 0 0 0
3319 415 6 0.19089 -2.7177040935372085 5.807568558109486 -0.11276723651043064 1 0 1
78 10 6 0.19089 8.201299956713811 7.355172843102485 3.9398186177389523 0 0 0
3913 490 1 -0.38353 7.942403608956285 -3.327902192653808 -4.541646445745786 0 1 1
847 106 6 0.19089 8.014589025254827 -3.678041118076079 4.456431189366164 0 1 0
3097 388 1 -0.38353 3.3136516797065125 1.8418461829668136 -4.9116730523402365 0 0 1
3295 412 6 0.19089 -3.452352552591283 0.9594796191637665 -4.940249654774424 1 0 1
79 10 6 0.19089 7.572257312545823 5.795063491614414 4.721911611299392 0 0 0
215 27 6 0.19089 -2.9170538393955234 7.435370548105487 4.688321072490652 1 0 0
1038 130 6 0.19089 1.4629075926103212 7.355546471980674 14.001501980557105 0 0 0
1014 127 6 0.19089 -2.6944572810572143 -2.214671819568507 10.360444630204588 1 1 0
36 5 4 -0.488411 6.186868505527382 4.124870008439364 6.716747156791525 0 0 0
9 2 1 -0.38353 0.8658729750680925 6.689268509445203 4.943695806934272 0 0 0
22 3 6 0.19089 4.860548038375722 6.080743886010936 5.283697164957356 0 0 0
1145 144 1 -0.38353 10.04432815295241 1.5252190167007091 9.741877707163042 0 0 0
1809 227 1 -0.38353 4.135102080739107 -3.2284898777087383 14.60537268409729 0 1 0
1132 142 4 -0.488411 7.964973287141916 4.082205670964772 12.453103469500562 0 0 0
228 29 4 -0.488411 -0.8110255587259685 4.524146384157913 7.165140588868546 1 0 0
1012 127 4 -0.488411 -2.6916550426240056 -0.5620713581283825 6.8079655566632145 1 1 0
80 10 6 0.1559 7.17500585061228 6.735199862772772 6.818081055669152 0 0 0
1088 136 6 0.1559 3.6163700684925386 1.4755687441758365 11.617453468534315 0 0 0
37 5 5 -0.008385 5.950958699936232 4.416945284557743 8.689420328458082 0 0 0
805 101 5 -0.008385 5.647670939569737 -5.278942845154739 8.704689708749068 0 1 0
1234 155 2 -0.169515 -2.7568366324887146 6.0900984911901865 13.115065427373292 1 0 0
1025 129 1 -0.38353 6.184335013702723 1.7631691747249612 14.21509513446944 0 0 0
1082 136 2 -0.169515 3.044286256693205 0.9856024503197496 10.855417117070532 0 0 0
817 103 1 -0.38353 4.143141907066721 -2.7008260475406227 9.826488416741617 0 1 0
818 103 2 -0.169515 4.064171220803004 -2.1922264589155915 8.56406173193068 0 1 0
824 103 6 0.1559 3.5587779779216078 -2.7019991815160047 7.815341348547577 0 1 0
1081 136 1 -0.38353 2.940569858189571 1.5670281328827818 9.640236942608272 0 0 0
1069 134 5 -0.008385 1.4640747967735175 3.9409822782001633 10.426771475585893 0 0 0
229 29 5 -0.008385 -1.8649779525546024 4.213037960492345 8.875944203424028 1 0 0
1150 144 6 0.19089 9.4429538824272 0.9708882684922013 9.013763839482182 0 0 0
983 123 6 0.19089 -2.3696741311549285 -2.3443568843980898 5.035603436530311 1 1 0
74 10 2 -0.169515 7.658059622495193 7.376989233240133 6.024563654894971 0 0 0
6 1 6 0.19089 6.0620988501628865 1.2948645840633342 5.230873512629731 0 0 0
1009 127 1 -0.38353 -3.1177975648808074 -2.856953745049756 9.560725456967166 1 1 0
55 7 6 0.19089 3.8452109998486357 5.88008993736754 9.396375783746556 0 0 0
823 103 6 0.19089 3.727397555310768 -3.6658025797306095 10.085649669429015 0 1 0
91 12 3 0.512161 9.495814509354744 3.6051591012625277 6.463856254342538 0 0 0
1240 155 6 0.1559 -3.1523708070386043 6.737688140342355 12.356120218505893 1 0 0
1236 155 4 -0.488411 -2.4924827397424965 4.334626798181812 11.526845172471784 1 0 0
1042 131 2 -0.169515 4.079023951533241 6.077631118680888 12.942584250275342 0 0 0
1043 131 3 0.512161 4.4758145848725395 4.704958770067542 12.480536348537218 0 0 0
1048 131 6 0.1559 3.6467814190351113 6.626525746587639 12.137787609391111 0 0 0
1071 134 6 0.19089 0.5230559150313328 7.417684255225035 9.302616048733999 0 0 0
1810 227 2 -0.169515 3.8991200919400058 -3.8249618242993177 13.402631079605573 0 1 0
781 98 5 -0.008385 2.064614762785295 -0.5698428586251483 5.568172806677488 0 1 0
1816 227 6 0.1559 3.216895853777669 -3.3042919793863805 12.67445488867953 0 1 0
982 123 6 0.19089 -2.254072720313279 -4.028603530003668 5.796857486943804 1 1 0
1280 160 6 0.1559 -3.4937591629949063 1.3832722391256862 11.933649510178569 1 0 0
1097 138 1 -0.38353 7.796214525434175 6.6303428703297485 14.565674228525772 0 0 0
1835 230 3 0.512161 1.199054401152198 -5.144697122793193 11.126219648131286 0 1 0
1235 155 3 0.512161 -2.4339315844360776 4.723513268358413 12.689040188210942 1 0 0
27 4 3 0.512161 2.70619646693972 3.9424691964232146 6.07694378913998 0 0 0
1146 144 2 -0.169515 10.086357978571545 1.03486994039742 11.01911332188703 0 0 0
246 31 6 0.19089 -2.346685061173494 7.315907663168423 10.298855788535802 1 0 0
54 7 6 0.19089 4.615196561436292 7.3666264163537996 10.130830502280096 0 0 0
820 103 4 -0.488411 4.656701019388194 -0.5137467828703919 6.9573976449479 0 1 0
1039 130 6 0.19089 0.4118764812478757 5.803127849076276 14.288790395943458 0 0 0
214 27 6 0.19089 -1.8079118878483664 6.082736718087084 5.301931972850078 1 0 0
819 103 3 0.512161 4.6432221687668065 -0.894861880161451 8.120543505763047 0 1 0
821 103 5 -0.008385 5.124163271602269 -0.2718681720793841 8.916868402213668 0 1 0
1011 127 3 0.512161 -2.5424074074607836 -1.0443466362582363 7.927246428417169 1 1 0
1013 127 5 -0.008385 -2.0240155423319557 -0.46537061572772664 8.72721475812077 1 1 0
32 4 6 0.1559 3.5381484764422826 2.01414451280778 6.500836950354039 0 0 0
1028 129 4 -0.488411 6.242853583492661 -0.9140171975321225 11.801180922281198 0 0 0
822 103 6 0.19089 4.648304695820588 -2.183994367879775 10.624848679441808 0 1 0
15 2 6 0.19089 0.4864891289078166 5.65645423598939 4.826272049889566 0 0 0
1220 153 4 -0.488411 -0.7583823074399971 -0.8459994604208783 11.504227818833225 1 0 0
1102 138 6 0.19089 8.345051738203829 7.108028389466467 13.801845856927802 0 0 0
1027 129 3 0.512161 5.9976478269279525 -0.33251135085307304 12.83507499987983 0 0 0
1029 129 5 -0.008385 5.383323883970343 -0.8088558008910773 13.622394755223805 0 0 0
1219 153 3 0.512161 -0.954881645205409 -0.4598341080180477 12.635210021135652 1 0 0
1221 153 5 -0.008385 -1.3962440279801478 -1.1318174522560582 13.38547148204464 1 0 0
1801 226 1 -0.38353 0.5446725232918936 -3.1865296490395902 14.437642419960973 0 1 0
1807 226 6 0.19089 0.2367923432613308 -4.192601225340197 14.269922063065387 0 1 0
33 5 1 -0.38353 6.55240869571338 2.070010874167572 9.636365122535299 0 0 0
34 5 2 -0.169515 6.5279766794630785 2.392835806958641 8.335737932409627 0 0 0
35 5 3 0.512161 6.1583909986205825 3.74434474600249 7.867031953774633 0 0 0
40 5 6 0.1559 6.946599854825164 1.6550685575112034 7.6041073220564535 0 0 0
225 29 1 -0.38353 -0.6494022277865641 1.7976271841701967 9.522060066475946 1 0 0
226 29 2 -0.169515 -0.40309549186902593 2.629303655399273 8.448693206716962 1 0 0
227 29 3 0.512161 -1.096691259894393 3.9040494820884124 8.16635125356711 1 0 0
232 29 6 0.1559 0.35946570671221245 2.3607280364028087 7.735786205406647 1 0 0
38 5 6 0.19089 6.140526277701342 2.789560392310536 10.326351117983862 0 0 0
39 5 6 0.19089 6.937501596499041 1.1118484111087081 10.053872337957488 0 0 0
1044 131 4 -0.488411 4.342093599649205 4.311400738654525 11.343218079521982 0 0 0
230 29 6 0.19089 -1.3518740243374752 2.061148264335217 10.267085444702145 1 0 0
231 29 6 0.19089 -0.10363002670684107 0.8732726838033447 9.658535516066204 1 0 0
1233 155 1 -0.38353 -2.7272422872674307 6.510581889270307 14.384757644331959 1 0 0
56 7 6 0.1559 3.581623980496577 7.05869629164539 7.1918124894695605 0 0 0
1026 129 2 -0.169515 6.550483997934846 0.9958743592037438 13.140292780960834 0 0 0
1032 129 6 0.1559 7.269756126120846 1.3219822087079756 12.381403852300188 0 0 0
1045 131 5 -0.008385 5.031308114698435 4.057562161425379 13.18120544038203 0 0 0
92 12 4 -0.488411 9.613893235543996 4.053171309497152 7.59076839334341 0 0 0
1218 153 2 -0.169515 -0.6130988513972437 0.892609317506917 13.126044240049112 1 0 0
1224 153 6 0.1559 -0.10557248862549917 1.5125855746846222 12.404147710277773 1 0 0
1237 155 5 -0.008385 -2.138165087051158 4.008439509156904 13.494675452323197 1 0 0
198 25 6 0.19089 -1.241722843087758 0.9761447676551578 5.641223058646117 1 0 0
1010 127 2 -0.169515 -3.0900277437533115 -2.4149633258426966 8.293498220084096 1 1 0
790 99 6 0.19089 5.3950584513644415 -3.7763328757545427 5.762608826907435 0 1 0
10 2 2 -0.169515 0.5369747336036808 7.332591770109076 6.098373933515422 0 0 0
26 4 2 -0.169515 3.094171898047154 2.5816641891794134 5.677864782121665 0 0 0
778 98 2 -0.169515 0.6450864167445332 -2.208872934918884 5.9330509578149755 0 1 0
784 98 6 0.1559 -0.12515292906511233 -2.5879672772616336 6.61502977034087 0 1 0
1068 134 4 -0.488411 0.9180512941256351 4.14288466239668 12.372774130726288 0 0 0
1118 140 6 0.19089 9.302387617469774 2.3395811487106 13.918260338787615 0 0 0
1135 142 6 0.19089 7.2967474566821 7.536208635280039 9.661238241914207 0 0 0
777 98 1 -0.38353 0.9788019525175127 -2.901589159239347 4.837498394786872 0 1 0
93 12 5 -0.008385 8.810077211546833 3.96698119420361 5.70654515942771 0 0 0
1133 142 5 -0.008385 8.520911270843214 4.0355110211414615 10.525165826515394 0 0 0
842 106 2 -0.169515 8.094318123534388 -2.4486036399531415 6.207228128269627 0 1 0
848 106 6 0.1559 7.768225540363664 -3.298072632564151 6.8438019560678445 0 1 0
1054 132 6 0.19089 2.5921963086161783 2.340672415266754 13.85263893408165 0 0 0
28 4 4 -0.488411 2.8943414239045664 4.32745477089809 7.203134084261775 0 0 0
1070 134 6 0.19089 1.5126825156019281 5.9155184271904755 8.90151756672621 0 0 0
841 106 1 -0.38353 8.215078056632475 -2.696153113707044 4.887789649030086 0 1 0
16 2 6 0.1559 -0.004973451652349858 6.805673923425825 6.934564872440134 0 0 0
1838 230 6 0.19089 0.9169073779202188 -3.7206779740824825 8.796217067193538 0 1 0
1839 230 6 0.19089 -0.21665934798799213 -2.3961524298754475 9.417991596081107 0 1 0
29 4 5 -0.008385 2.3822647346879444 4.618850406532712 5.292022909353456 0 0 0
1134 142 6 0.19089 8.393679439665966 6.1381247489658115 9.118529977482646 0 0 0
1087 136 6 0.19089 3.499540250315949 2.515308256732202 9.486085117408882 0 0 0
1811 227 3 0.512161 4.592331236086688 -5.063431065834182 12.947854812006344 0 1 0
1902 238 6 0.19089 8.447989497422338 -3.9093291906907326 9.103628554917327 0 1 0
1903 238 6 0.19089 7.2983756272315805 -2.563663179614815 9.767933915634115 0 1 0
1065 134 1 -0.38353 0.9261429156837595 6.470238412905097 9.613368651169871 0 0 0
1066 134 2 -0.169515 0.583734152801016 5.969864965810974 10.822213097893009 0 0 0
1067 134 3 0.512161 1.0217088548937339 4.616204478212659 11.25695266820794 0 0 0
1072 134 6 0.1559 0.057114379602966725 6.554281337495768 11.551396200910094 0 0 0
1833 230 1 -0.38353 0.3468999091991636 -3.318128427802437 9.605553822842644 0 1 0
1834 230 2 -0.169515 0.39381637867881425 -3.9228340603025718 10.825488057086346 0 1 0
2002 251 2 -0.169515 -3.225732727985132 -4.105218785632898 13.488663231065036 1 1 0
1840 230 6 0.1559 -0.19388543936241742 -3.5507540364608 11.614737445683005 0 1 0
1129 142 1 -0.38353 7.780369420474063 6.585855205304478 9.886378150723438 0 0 0
1130 142 2 -0.169515 7.5897793138708085 5.985332408269233 11.075928966412157 0 0 0
1131 142 3 0.512161 8.053448274170494 4.583229412624794 11.368086271295564 0 0 0
1136 142 6 0.1559 6.981241054981551 6.44708288146456 11.860588907251632 0 0 0
1897 238 1 -0.38353 7.824714490974683 -3.5098025775595803 9.92564144781131 0 1 0
1898 238 2 -0.169515 7.618620185698063 -4.211708920077542 11.095292463640973 0 1 0
785 99 1 -0.38353 4.676962686833603 -3.3419419661513388 5.096122225662581 0 1 0
1904 238 6 0.1559 6.9204292693712315 -3.842849947546049 11.838277094426072 0 1 0
1870 234 6 0.19089 7.975806831255557 -2.3891835360678835 13.872699716397946 0 1 0
193 25 1 -0.38353 -0.7843923827757884 1.6312821392518302 4.969416498415814 1 0 0
1217 153 1 -0.38353 -0.8537649399243015 1.3446801777556914 14.371250733435957 1 0 0
49 7 1 -0.38353 4.182991692394169 6.890755616769038 9.257044641299078 0 0 0
779 98 3 0.512161 1.2301720685592468 -0.8714077367548674 6.2551131869639285 0 1 0
241 31 1 -0.38353 -2.9180111809346183 6.853070539386943 9.48691582364619 1 0 0
843 106 3 0.512161 8.24171891006548 -1.0771829556278032 6.79205086847427 0 1 0
845 106 5 -0.008385 8.583824913020136 -0.28669015490288263 6.054505412002401 0 1 0
1086 136 6 0.19089 2.374362574478429 1.2081359957855495 8.803445676397715 0 0 0
780 98 4 -0.488411 0.8811505497189325 -0.13521688275390087 7.169522230711555 0 1 0
1033 130 1 -0.38353 0.7526710524947227 6.810371739282802 14.62478622284878 0 0 0
844 106 4 -0.488411 8.023167178569903 -0.8215000021310219 7.95937564198624 0 1 0
1083 136 3 0.512161 2.4063464249492963 -0.286839788186553 11.304684501070874 0 0 0
1085 136 5 -0.008385 1.8564058554387648 -0.7843576737409448 10.508644280832298 0 0 0
1147 144 3 0.512161 9.49576966402819 -0.28490466749858 11.363774855688156 0 0 0
1149 144 5 -0.008385 9.080202460427547 -0.8673748006566582 10.544453926539624 0 0 0
997 125 5 -0.008385 -1.2595908082939835 -5.325441517250304 8.71053707205069 1 1 0
1084 136 4 -0.488411 2.581505464954767 -0.7339666559201543 12.422194889522046 0 0 0
977 123 1 -0.38353 -2.314355121366517 -3.408814220919388 4.912175992218302 1 1 0
90 12 2 -0.169515 10.208023885335788 2.3823273955492654 6.061476769358439 0 0 0
50 7 2 -0.169515 4.117220728529722 7.518630352070012 8.053931527655202 0 0 0
1806 226 6 0.19089 0.7846433095323722 -2.581193946953346 13.574491424961323 0 1 0
791 99 6 0.19089 4.278462189584768 -2.3324307299579554 5.352910788637763 0 1 0
247 31 6 0.19089 -3.4731582235969665 5.966570872281384 9.81866663547791 1 0 0
1148 144 4 -0.488411 9.658283414277022 -0.7898942584675046 12.472211006626917 0 0 0
242 31 2 -0.169515 -3.108102202889109 7.390400257725805 8.252641877840578 1 0 0
1103 138 6 0.19089 7.3901315722586425 5.6287108046947925 14.301565023046987 0 0 0
2003 251 3 0.512161 -2.5686104616096257 -5.323776002468006 13.053059062179155 1 1 0
1880 235 6 0.1559 10.346158581525549 -3.510039197988255 12.466696094660524 0 1 0
199 25 6 0.19089 -0.5807430260434612 2.619709234177485 5.341040001599408 1 0 0
1047 131 6 0.19089 4.015271209440397 7.53614904489061 14.463356192190133 0 0 0
1041 131 1 -0.38353 4.306569472632334 6.5590167512498585 14.18690954847279 0 0 0
73 10 1 -0.38353 7.841210879148425 6.816385511404068 4.81695658082227 0 0 0
1031 129 6 0.19089 6.637205212780442 2.8001453955922955 14.406348071179956 0 0 0
89 12 1 -0.38353 10.08961299629353 1.8600034176096685 4.819865566351956 0 0 0
1144 143 6 0.1559 10.129888034732728 7.152647448555946 17.665032077629366 0 0 0
1884 236 4 -0.488411 9.20681757156887 -5.273586741745407 17.513384219296224 0 1 0
1060 133 4 -0.488411 5.7232064170122054 4.013846671927565 16.51475970419136 0 0 0
2169 272 1 -0.38353 10.208098754508807 1.7010071499388832 19.66671412140723 0 0 0
1074 135 2 -0.169515 4.043688219794063 7.412315151100708 17.972946485578902 0 0 0
2271 284 6 0.19089 -3.416663033404077 0.8425797122670087 24.380260022352 1 0 0
3026 379 2 -0.169515 -2.6797779118559273 -3.7011055973994305 23.033789085396933 1 1 0
2156 270 4 -0.488411 7.9276414554305 4.129192437543011 22.37762957514055 0 0 0
1252 157 4 -0.488411 -1.0099333588081754 4.164900826134174 16.5472334681675 1 0 0
2006 251 6 0.19089 -2.4492685358250395 -3.9532038603196344 15.512659559969233 1 1 0
1238 155 6 0.19089 -2.3416751857518077 5.820935544004254 15.115074352075315 1 0 0
2112 264 6 0.1559 3.43468601430775 1.7082459767163503 21.597204835538523 0 0 0
1061 133 5 -0.008385 5.732142575741822 4.352740793938722 18.46596916719137 0 0 0
2859 358 3 0.512161 1.352817701691773 -4.941389422810253 21.057141479177044 0 1 0
1271 159 6 0.19089 -2.99105348766518 5.802227705112475 19.573552448687042 1 0 0
2021 253 5 -0.008385 -0.9664475973893341 -5.128782422517411 18.528706883567267 1 1 0
2106 264 2 -0.169515 3.1016189006252066 1.0044673353188882 20.830007678583026 0 0 0
1841 231 1 -0.38353 4.495631044227107 -2.975191068802581 19.28579087655399 0 1 0
1842 231 2 -0.169515 4.089741170435853 -2.2958808332810623 18.193621162681435 0 1 0
1848 231 6 0.1559 3.388981663025051 -2.747979174949315 17.52889170399006 0 1 0
2105 264 1 -0.38353 2.886883716461244 1.492258392335227 19.58407848134257 0 0 0