variable        mytemp index 200.0
variable	dt index 1.0
variable        eta equal 0.1
variable 	lbda equal 0.5

variable scale_lj equal ${eta}+v_lbda*(1.0-${eta})
variable scale_lj equal 0.1+v_lbda*(1.0-${eta})
variable scale_lj equal 0.1+v_lbda*(1.0-0.1)
variable scale_coul equal (${eta}+v_lbda*(1.0-${eta}))^2
variable scale_coul equal (0.1+v_lbda*(1.0-${eta}))^2
variable scale_coul equal (0.1+v_lbda*(1.0-0.1))^2

units           real
special_bonds   lj 0.0 0.0 0.5 coul 0.0 0.0 0.8333
#neighbor        2.0 bin
#neigh_modify    delay 0 every 1 check yes page 1000000 one 20000
atom_style      full
pair_style	 hybrid/overlay lj/cut 12.0 coul/long 12.0

bond_style	 harmonic
dihedral_style	 charmm
angle_style	 harmonic
improper_style	 cvff

read_restart    restart.ar.500000
Reading restart file ...
  restart file = 29 Sep 2021, LAMMPS = 29 Sep 2021
  restoring atom style full from restart
  triclinic box = (0.0000000 0.0000000 0.0000000) to (30.167756 38.212491 44.246042) with tilt (0.0000000 0.0000000 0.0000000)
  2 by 3 by 4 MPI processor grid
  restoring pair style hybrid/overlay from restart
  restoring bond style harmonic from restart
  restoring angle style harmonic from restart
  restoring dihedral style charmm from restart
  restoring improper style cvff from restart
  4096 atoms
  3584 bonds
  4608 angles
  4096 dihedrals
  1536 impropers
Finding 1-2 1-3 1-4 neighbors ...
  special bond factors lj:    0        0        0.5     
  special bond factors coul:  0        0        0.8333  
     3 = max # of 1-2 neighbors
     4 = max # of 1-3 neighbors
     6 = max # of 1-4 neighbors
     7 = max # of special neighbors
  special bonds CPU = 0.501 seconds
  read_restart CPU = 0.720 seconds

kspace_style    pppm 1E-4
kspace_modify   mesh 32 32 32
pair_modify     mix arithmetic tail yes

timestep        ${dt}
timestep        1.0

# para obter essas coeficientes usar o comando "write_coeff file.coeff" em simulação nvt ou npt sem hybrid style
pair_coeff      * * coul/long

pair_coeff 	1 1 lj/cut 0.086 3.39967 12
pair_coeff 	1 2 lj/cut 0.086 3.39967 12
pair_coeff 	1 3 lj/cut 0.086 3.39967 12
pair_coeff 	1 4 lj/cut 0.134387 3.17979 12
pair_coeff 	1 5 lj/cut 0.0359166 2.95511 12
pair_coeff 	1 6 lj/cut 0.0359166 2.99965 12
pair_coeff 	2 2 lj/cut 0.086 3.39967 12
pair_coeff 	2 3 lj/cut 0.086 3.39967 12
pair_coeff 	2 4 lj/cut 0.134387 3.17979 12
pair_coeff 	2 5 lj/cut 0.0359166 2.95511 12
pair_coeff 	2 6 lj/cut 0.0359166 2.99965 12
pair_coeff 	3 3 lj/cut 0.086 3.39967 12
pair_coeff 	3 4 lj/cut 0.134387 3.17979 12
pair_coeff 	3 5 lj/cut 0.0359166 2.95511 12
pair_coeff 	3 6 lj/cut 0.0359166 2.99965 12
pair_coeff 	4 4 lj/cut 0.21 2.95992 12
pair_coeff 	4 5 lj/cut 0.0561249 2.73523 12
pair_coeff 	4 6 lj/cut 0.0561249 2.77978 12
pair_coeff 	5 5 lj/cut 0.015 2.51055 12
pair_coeff 	5 6 lj/cut 0.015 2.55509 12
pair_coeff 	6 6 lj/cut 0.015 2.59964 12

velocity        all zero linear units box

group   	mobile type <> 1 6
4096 atoms in group mobile

fix            1a all recenter INIT INIT INIT units box

fix            1 mobile nvt temp ${mytemp} ${mytemp} $(100.0*dt)
fix            1 mobile nvt temp 200.0 ${mytemp} $(100.0*dt)
fix            1 mobile nvt temp 200.0 200.0 $(100.0*dt)
fix            1 mobile nvt temp 200.0 200.0 100
Resetting global fix info from restart file:
  fix style: nvt, fix ID: 1
dump           1 all custom 10000 ${NAME}.lammpstrj id type x y z
dump           1 all custom 10000 ar.lammpstrj id type x y z

fix            2 mobile adapt 1 pair lj/cut epsilon 1*6 1*6 v_scale_lj scale yes
compute        lj all pair lj/cut

fix            3 mobile adapt 1 pair coul/long scale 1*6 1*6 v_scale_coul kspace v_scale_coul scale yes
compute        coul all pair coul/long


thermo_style    custom step vol temp press ke pe etotal enthalpy evdwl etail ecoul elong v_lbda v_scale_lj v_scale_coul c_lj c_coul
thermo          200

run             2000000
PPPM initialization ...
  using 12-bit tables for long-range coulomb (../kspace.cpp:340)
  G vector (1/distance) = 0.2607326
  grid = 32 32 32
  stencil order = 5
  estimated absolute RMS force accuracy = 0.00041335133
  estimated relative force accuracy = 1.2447952e-06
  using double precision KISS FFT
  3d grid and FFT values/proc = 6210 2048
All restart file global fix info was re-assigned
WARNING: Fix recenter should come after all other integration fixes (../fix_recenter.cpp:133)
Neighbor list info ...
  update every 1 steps, delay 10 steps, check yes
  max neighbors/atom: 2000, page size: 100000
  master list distance cutoff = 14
  ghost atom cutoff = 14
  binsize = 7, bins = 5 6 7
  2 neighbor lists, perpetual/occasional/extra = 2 0 0
  (1) pair lj/cut, perpetual, skip from (2)
      attributes: half, newton on
      pair build: skip
      stencil: none
      bin: none
  (2) pair coul/long, perpetual
      attributes: half, newton on
      pair build: half/bin/newton/tri
      stencil: half/bin/3d/tri
      bin: standard
Per MPI rank memory allocation (min/avg/max) = 12.12 | 12.16 | 12.21 Mbytes
Step Volume Temp Press KinEng PotEng TotEng Enthalpy E_vdwl E_tail E_coul E_long v_lbda v_scale_lj v_scale_coul c_lj c_coul 
  500000    51006.178    200.75293    1976.6982     2450.474    2726.2764    5176.7503    6647.1623   -1265.1422   -41.888909    7906.0135   -5819.2257          0.5         0.55       0.3025   -1223.2533    7906.0135 
  500200    51006.178    202.22591    1799.4828    2468.4538     2676.476    5144.9298    6483.5161   -1260.6786   -41.888909    7910.2486   -5818.7493          0.5         0.55       0.3025   -1218.7897    7910.2486 
  500400    51006.178    198.77205    2102.4674    2426.2945    2751.3911    5177.6856    6741.6539   -1261.0486   -41.888909    7907.7728   -5824.1124          0.5         0.55       0.3025   -1219.1597    7907.7728 
  500600    51006.178    205.70905    2641.9006    2510.9705    2762.3366    5273.3071     7238.545   -1238.7057   -41.888909    7906.0237   -5823.1747          0.5         0.55       0.3025   -1196.8168    7906.0237 
  500800    51006.178    197.88681    2348.2456    2415.4889    2723.7182    5139.2072    6886.0032   -1265.4342   -41.888909     7913.187   -5823.4482          0.5         0.55       0.3025   -1223.5453     7913.187 
  501000    51006.178    201.50926    2308.6963    2459.7061    2734.0253    5193.7314    6911.1078   -1271.4717   -41.888909    7910.0972   -5822.9236          0.5         0.55       0.3025   -1229.5827    7910.0972 
  501200    51006.178    199.16964     2466.118    2431.1477    2742.7738    5173.9214    7008.3995   -1257.5161   -41.888909    7895.9742   -5822.9921          0.5         0.55       0.3025   -1215.6272    7895.9742 
  501400    51006.178    198.07789    2553.8469    2417.8213     2749.007    5166.8283    7066.5656   -1264.9127   -41.888909    7916.1231   -5821.1892          0.5         0.55       0.3025   -1223.0237    7916.1231 
  501600    51006.178    199.39658    1708.9363    2433.9179    2747.5609    5181.4788      6452.71   -1275.9379   -41.888909    7913.2222   -5821.2132          0.5         0.55       0.3025    -1234.049    7913.2222 
  501800    51006.178    194.72214    1594.9956    2376.8596    2709.5099    5086.3696    6272.8434   -1276.1161   -41.888909    7900.9903   -5822.9934          0.5         0.55       0.3025   -1234.2272    7900.9903 
  502000    51006.178    198.97709    2148.7287    2428.7973    2719.3823    5148.1797    6746.5605   -1281.1625   -41.888909    7908.8774   -5825.1658          0.5         0.55       0.3025   -1239.2736    7908.8774 
  502200    51006.178    199.92365    2889.8638    2440.3515    2703.5549    5143.9064    7293.5974   -1260.2725   -41.888909     7911.438   -5823.9936          0.5         0.55       0.3025   -1218.3835     7911.438 
  502400    51006.178    204.47919    3179.5555    2495.9583    2720.9771    5216.9354    7582.1202   -1268.6984   -41.888909    7910.3389   -5823.0567          0.5         0.55       0.3025   -1226.8095    7910.3389 
  502600    51006.178    202.46838    2307.5721    2471.4135    2753.7377    5225.1512    6941.6913   -1275.0401   -41.888909    7928.7502   -5821.9061          0.5         0.55       0.3025   -1233.1512    7928.7502 
  502800    51006.178    197.89935    1947.7469     2415.642    2747.8876    5163.5296    6612.4055    -1244.955   -41.888909    7914.1783   -5826.0542          0.5         0.55       0.3025   -1203.0661    7914.1783 
  503000    51006.178      199.998    1284.4209     2441.259     2723.561      5164.82    6120.2657   -1266.4856   -41.888909    7901.9187    -5825.363          0.5         0.55       0.3025   -1224.5967    7901.9187 
  503200    51006.178    203.49433    2915.2321    2483.9367    2745.0947    5229.0315    7397.5933   -1257.4656   -41.888909    7905.3976   -5821.1034          0.5         0.55       0.3025   -1215.5767    7905.3976 
  503400    51006.178    197.85756    4081.2359    2415.1319    2700.4532    5115.5851    8151.5053    -1265.849   -41.888909    7907.9285   -5819.7152          0.5         0.55       0.3025   -1223.9601    7907.9285 
  503600    51006.178    199.48119    3552.1265    2434.9506    2738.9038    5173.8544    7816.1847    -1269.958   -41.888909    7903.9291   -5821.2012          0.5         0.55       0.3025    -1228.069    7903.9291 
  503800    51006.178    201.58329    2347.3313    2460.6097    2748.5247    5209.1344    6955.2502   -1259.3767   -41.888909    7907.0932   -5817.7274          0.5         0.55       0.3025   -1217.4877    7907.0932 
  504000    51006.178    195.01383    2349.0224    2380.4202    2698.2295    5078.6497    6826.0235   -1272.7226   -41.888909    7916.4337   -5816.1916          0.5         0.55       0.3025   -1230.8337    7916.4337 
  504200    51006.178    199.10339    3175.9379    2430.3391    2748.5477    5178.8867    7541.3805   -1258.1572   -41.888909    7910.8966   -5819.8898          0.5         0.55       0.3025   -1216.2683    7910.8966 
  504400    51006.178    198.09471    2179.7961    2418.0266    2767.1058    5185.1324    6806.6235   -1259.1755   -41.888909    7909.4513   -5822.4601          0.5         0.55       0.3025   -1217.2865    7909.4513 
  504600    51006.178    194.37711    891.83197     2372.648    2692.0917    5064.7397    5728.1493   -1268.8103   -41.888909    7905.5073   -5821.6118          0.5         0.55       0.3025   -1226.9214    7905.5073 
  504800    51006.178    200.93996    1293.6022     2452.757    2719.6203    5172.3773    6134.6527   -1278.0108   -41.888909    7905.8597    -5821.654          0.5         0.55       0.3025   -1236.1219    7905.8597 
  505000    51006.178    199.74944    2781.6434     2438.225    2747.6166    5185.8416    7255.0304   -1252.9682   -41.888909    7907.9714    -5823.141          0.5         0.55       0.3025   -1211.0793    7907.9714 
  505200    51006.178     197.7047    2396.9927     2413.266    2738.4105    5151.6765    6934.7342   -1260.9318   -41.888909    7916.0408   -5819.8632          0.5         0.55       0.3025   -1219.0429    7916.0408 
  505400    51006.178    200.99641    2364.3517     2453.446    2698.4283    5151.8743    6910.6512   -1257.9348   -41.888909    7904.9947   -5819.7079          0.5         0.55       0.3025   -1216.0459    7904.9947 
  505600    51006.178    202.51652    2802.0599    2472.0011    2738.3774    5210.3785    7294.7546   -1263.5257   -41.888909    7901.3832   -5821.2936          0.5         0.55       0.3025   -1221.6368    7901.3832 
  505800    51006.178    199.09598    2725.8602    2430.2486    2715.5434     5145.792    7173.4853   -1271.3872   -41.888909    7918.5269    -5820.469          0.5         0.55       0.3025   -1229.4983    7918.5269 
  506000    51006.178    199.32894    2498.1276    2433.0922    2730.0377    5163.1299     7021.419   -1265.3438   -41.888909    7910.5752   -5823.2457          0.5         0.55       0.3025   -1223.4549    7910.5752 
  506200    51006.178    199.59067    2357.5012     2436.287    2736.3907    5172.6777    6926.3587   -1250.1714   -41.888909    7905.5543   -5824.3133          0.5         0.55       0.3025   -1208.2824    7905.5543 
  506400    51006.178    196.49053    1459.5993    2398.4453    2658.7645    5057.2099    6142.9661   -1269.1321   -41.888909    7907.7512   -5825.2037          0.5         0.55       0.3025   -1227.2432    7907.7512 
  506600    51006.178    202.07362    1249.1096    2466.5949    2714.3512    5180.9461    6110.1248   -1261.5752   -41.888909    7908.1642   -5824.1427          0.5         0.55       0.3025   -1219.6863    7908.1642 
  506800    51006.178    201.42074    2012.5068    2458.6256    2708.0599    5166.6855    6663.7345   -1260.7408   -41.888909    7904.8589   -5823.5691          0.5         0.55       0.3025   -1218.8519    7904.8589 
  507000    51006.178    197.14153    2783.0555    2406.3918    2687.4626    5093.8544    7164.0937   -1282.5209   -41.888909    7912.4257   -5820.4046          0.5         0.55       0.3025    -1240.632    7912.4257 
  507200    51006.178    200.65309     4010.491    2449.2553    2769.0712    5218.3265    8201.6216   -1247.1636   -41.888909    7910.3699   -5824.2174          0.5         0.55       0.3025   -1205.2747    7910.3699 
  507400    51006.178    199.93565    2971.2273     2440.498    2709.1224    5149.6204    7359.8355   -1260.8492   -41.888909     7895.604   -5825.8919          0.5         0.55       0.3025   -1218.9603     7895.604 
  507600    51006.178    195.28478     2551.901    2383.7275    2707.1253    5090.8529    6989.1426   -1259.0237   -41.888909    7913.3824   -5824.8676          0.5         0.55       0.3025   -1217.1348    7913.3824 
  507800    51006.178    200.95938    2801.0981     2452.994    2757.5106    5210.5047    7294.1653   -1240.2587   -41.888909    7901.9369   -5824.2442          0.5         0.55       0.3025   -1198.3698    7901.9369 
  508000    51006.178    197.81487     2945.674    2414.6108     2742.722    5157.3328    7348.5395   -1268.2579   -41.888909    7908.2034    -5822.419          0.5         0.55       0.3025    -1226.369    7908.2034 
  508200    51006.178    199.40063    2493.4142    2433.9672    2713.8307    5147.7979    7002.5808   -1257.1017   -41.888909    7909.2711   -5822.7915          0.5         0.55       0.3025   -1215.2128    7909.2711 
  508400    51006.178    198.84715    2363.9541    2427.2113    2744.4042    5171.6155    6930.0966   -1258.1874   -41.888909    7909.0555   -5822.9867          0.5         0.55       0.3025   -1216.2985    7909.0555 
  508600    51006.178    198.19318    3340.5685    2419.2286    2753.8063    5173.0349    7657.9929   -1255.0219   -41.888909    7921.2845   -5824.2591          0.5         0.55       0.3025    -1213.133    7921.2845 
  508800    51006.178    205.13059    3716.7365    2503.9095    2758.6711    5262.5806    8027.3597   -1249.9467   -41.888909    7903.0436   -5826.0294          0.5         0.55       0.3025   -1208.0578    7903.0436 
  509000    51006.178    200.26415    2448.0606    2444.5077    2707.6821    5152.1898    6973.2355   -1253.5965   -41.888909    7902.4918   -5826.6899          0.5         0.55       0.3025   -1211.7076    7902.4918 
  509200    51006.178    201.71541     1490.811    2462.2225    2695.3863    5157.6088    6266.5826   -1274.6909   -41.888909     7899.878   -5824.6786          0.5         0.55       0.3025   -1232.8019     7899.878 
  509400    51006.178    203.12102    2760.6107    2479.3799    2780.2689    5259.6488     7313.192   -1251.8334   -41.888909    7910.8905    -5824.363          0.5         0.55       0.3025   -1209.9445    7910.8905 
  509600    51006.178    198.74786    2810.1398    2425.9993    2713.4236    5139.4229    7229.8094   -1269.1621   -41.888909    7906.2456   -5824.1403          0.5         0.55       0.3025   -1227.2732    7906.2456 
  509800    51006.178    196.31303    2793.7454    2396.2787    2777.6818    5173.9605    7252.1517   -1246.4875   -41.888909     7903.729   -5824.6435          0.5         0.55       0.3025   -1204.5986     7903.729 
  510000    51006.178    203.81453    2600.1698    2487.8452    2758.5222    5246.3673    7180.5629   -1254.0826   -41.888909    7905.0086   -5824.2098          0.5         0.55       0.3025   -1212.1937    7905.0086 
  510200    51006.178    195.35664    2560.3183    2384.6047    2751.0122    5135.6169     7040.168   -1269.7764   -41.888909    7911.6721   -5822.6958          0.5         0.55       0.3025   -1227.8875    7911.6721 
  510400    51006.178    201.77944     1968.723     2463.004    2703.1568    5166.1608    6630.6402   -1274.1966   -41.888909    7903.5481   -5823.3892          0.5         0.55       0.3025   -1232.3077    7903.5481 
  510600    51006.178    199.64656    1896.3701    2436.9692     2778.254    5215.2233    6625.8814   -1263.1678   -41.888909    7915.4779   -5822.5714          0.5         0.55       0.3025   -1221.2789    7915.4779 
  510800    51006.178    199.24629    1782.2467    2432.0834     2677.024    5109.1074    6434.8722   -1272.0884   -41.888909    7909.3172   -5822.3651          0.5         0.55       0.3025   -1230.1995    7909.3172 
  511000    51006.178    202.91103    1801.0383    2476.8167    2721.6714    5198.4881    6538.2315   -1270.9752   -41.888909    7918.2813   -5821.3869          0.5         0.55       0.3025   -1229.0863    7918.2813 
  511200    51006.178    201.25536    1996.6287    2456.6068    2718.0086    5174.6154    6659.8532   -1269.1808   -41.888909    7908.7338   -5822.7554          0.5         0.55       0.3025   -1227.2919    7908.7338 
  511400    51006.178    200.01102    2367.8655    2441.4179    2741.4637    5182.8817    6944.2723   -1262.8674   -41.888909    7909.5403   -5821.7014          0.5         0.55       0.3025   -1220.9785    7909.5403 
  511600    51006.178    204.61473    1965.6871    2497.6128    2720.6212     5218.234    6680.4552    -1268.065   -41.888909     7900.351   -5824.0744          0.5         0.55       0.3025   -1226.1761     7900.351 
  511800    51006.178    196.93735    785.06185    2403.8994     2712.908    5116.8074    5700.7936   -1271.8689   -41.888909    7901.2352   -5819.4449          0.5         0.55       0.3025     -1229.98    7901.2352 
  512000    51006.178    199.15732    958.64124    2430.9973    2739.2741    5170.2715    5883.3786   -1263.6623   -41.888909    7903.9104    -5822.621          0.5         0.55       0.3025   -1221.7734    7903.9104 
  512200    51006.178    202.61254    2579.2736    2473.1732    2739.1447    5212.3179    7130.9693   -1272.3803   -41.888909    7910.7877   -5820.2026          0.5         0.55       0.3025   -1230.4914    7910.7877 
  512400    51006.178    195.24234    3155.3356    2383.2095    2777.5768    5160.7863    7507.9546   -1265.3147   -41.888909    7907.6544   -5821.1321          0.5         0.55       0.3025   -1223.4257    7907.6544 
  512600    51006.178    202.36654    1700.1546    2470.1705    2703.5668    5173.7373     6438.436   -1272.4831   -41.888909    7916.6071   -5822.4541          0.5         0.55       0.3025   -1230.5942    7916.6071 
  512800    51006.178    201.65955    1264.0248    2461.5406    2786.8839    5248.4245    6188.6981   -1261.9129   -41.888909    7915.1484   -5823.1582          0.5         0.55       0.3025    -1220.024    7915.1484 
  513000    51006.178    198.57197    2752.3832    2423.8523    2728.2161    5152.0683    7199.4913   -1241.1648   -41.888909    7905.2326   -5824.3075          0.5         0.55       0.3025   -1199.2759    7905.2326 
  513200    51006.178     201.5714    3095.0035    2460.4646    2727.4298    5187.8944    7490.1833   -1248.8599   -41.888909    7909.8687    -5826.694          0.5         0.55       0.3025    -1206.971    7909.8687 
  513400    51006.178    199.11692    2484.2808    2430.5042    2721.2579    5151.7621     6999.751   -1253.6514   -41.888909     7906.131    -5825.764          0.5         0.55       0.3025   -1211.7625     7906.131 
  513600    51006.178    196.91962    2355.7961    2403.6831    2728.9475    5132.6306    6885.0432   -1263.5797   -41.888909     7904.854   -5826.5994          0.5         0.55       0.3025   -1221.6908     7904.854 
  513800    51006.178     200.5489    2918.8979    2447.9835     2761.391    5209.3745    7380.6632   -1268.7854   -41.888909    7910.2764    -5821.759          0.5         0.55       0.3025   -1226.8965    7910.2764 
  514000    51006.178    195.80766    3498.8334      2390.11    2764.9763    5155.0863    7757.7732   -1244.6568   -41.888909    7911.3744    -5825.246          0.5         0.55       0.3025   -1202.7679    7911.3744 
  514200    51006.178    203.48449    2054.8952    2483.8165    2766.0437    5249.8603    6778.4409   -1260.1821   -41.888909    7920.7924     -5824.32          0.5         0.55       0.3025   -1218.2932    7920.7924 
  514400    51006.178    200.63033    2008.2119    2448.9775    2761.1142    5210.0916    6703.9458   -1257.9194   -41.888909    7921.6529    -5822.019          0.5         0.55       0.3025   -1216.0305    7921.6529 
  514600    51006.178     203.3056    2122.8737     2481.633    2681.3649    5162.9979    6742.1459   -1287.9203   -41.888909    7916.4305   -5821.5237          0.5         0.55       0.3025   -1246.0314    7916.4305 
  514800    51006.178    202.03886    2562.4765    2466.1706    2717.9648    5184.1354     7090.292   -1283.0387   -41.888909    7909.7641   -5823.7822          0.5         0.55       0.3025   -1241.1498    7909.7641 
  515000    51006.178    198.44686    2099.8699    2422.3252    2741.0631    5163.3883    6725.4244   -1262.3945   -41.888909    7907.0656   -5825.4871          0.5         0.55       0.3025   -1220.5056    7907.0656 
  515200    51006.178    196.40351    1063.9974    2397.3832    2719.6773    5117.0606    5908.5393   -1268.6794   -41.888909    7904.8145   -5825.6666          0.5         0.55       0.3025   -1226.7905    7904.8145 
  515400    51006.178    201.29507    2051.4104    2457.0916    2749.7117    5206.8033    6732.7917   -1257.0975   -41.888909    7900.7816    -5824.457          0.5         0.55       0.3025   -1215.2086    7900.7816 
  515600    51006.178    200.14435    2931.9088    2443.0455    2687.1506    5130.1961    7311.1633   -1266.2987   -41.888909    7903.3296   -5825.0863          0.5         0.55       0.3025   -1224.4098    7903.3296 
  515800    51006.178    202.45474    2844.1499     2471.247    2740.9001    5212.1471    7327.8328   -1283.2926   -41.888909    7913.3283   -5821.4124          0.5         0.55       0.3025   -1241.4037    7913.3283 
  516000    51006.178    196.99598     2637.457    2404.6151    2795.4433    5200.0583    7161.9908   -1246.2978   -41.888909    7910.1767   -5822.9628          0.5         0.55       0.3025   -1204.4089    7910.1767 
  516200    51006.178    199.61297    3158.1681    2436.5592    2731.5592    5168.1184    7517.3937   -1277.6266   -41.888909    7912.9006   -5820.2106          0.5         0.55       0.3025   -1235.7377    7912.9006 
  516400    51006.178    200.17915    2923.1836    2443.4702    2735.2402    5178.7104    7353.1871   -1269.6342   -41.888909    7919.0748   -5822.2584          0.5         0.55       0.3025   -1227.7453    7919.0748 
  516600    51006.178    198.30395    2008.4808    2420.5808     2744.523    5165.1038    6659.1579   -1255.2447   -41.888909    7896.8457   -5824.2588          0.5         0.55       0.3025   -1213.3557    7896.8457 
  516800    51006.178    193.06844     2182.922    2356.6739    2709.2756    5065.9495    6689.7658   -1274.3948   -41.888909    7909.5781   -5823.8606          0.5         0.55       0.3025   -1232.5059    7909.5781 
  517000    51006.178    200.81486    2915.4459      2451.23    2710.3314    5161.5614    7330.2823    -1262.249   -41.888909     7909.977   -5826.3103          0.5         0.55       0.3025   -1220.3601     7909.977 
  517200    51006.178    200.23922    2434.5317    2444.2034    2717.6049    5161.8083    6972.7901   -1260.8353   -41.888909    7903.9624   -5824.7567          0.5         0.55       0.3025   -1218.9464    7903.9624 
  517400    51006.178    197.29271    837.29181    2408.2371    2676.1808    5084.4179    5707.2565   -1288.9959   -41.888909    7912.7884   -5825.4629          0.5         0.55       0.3025    -1247.107    7912.7884 
  517600    51006.178    199.13858    1241.2908    2430.7685    2771.1685     5201.937    6125.2995   -1260.6037   -41.888909    7900.8526   -5824.6749          0.5         0.55       0.3025   -1218.7148    7900.8526 
  517800    51006.178    198.85143    2658.8861    2427.2635    2729.5015     5156.765     7134.638   -1273.3515   -41.888909    7913.3834   -5824.0806          0.5         0.55       0.3025   -1231.4626    7913.3834 
  518000    51006.178    199.47512    2476.4663    2434.8765    2680.0925     5114.969    6957.1448   -1282.7426   -41.888909     7902.359   -5823.0945          0.5         0.55       0.3025   -1240.8537     7902.359 
  518200    51006.178    198.79323    1981.1136    2426.5531    2741.8788    5168.4319    6642.1284   -1283.4614   -41.888909    7912.6406   -5822.0651          0.5         0.55       0.3025   -1241.5725    7912.6406 
  518400    51006.178    197.16151     2290.156    2406.6356    2797.7122    5204.3478    6907.9325   -1257.7289   -41.888909    7908.1805    -5821.424          0.5         0.55       0.3025     -1215.84    7908.1805 
  518600    51006.178    203.95896    3110.1979    2489.6081    2771.3407    5260.9489    7574.5405   -1270.4104   -41.888909    7906.6814   -5824.3348          0.5         0.55       0.3025   -1228.5215    7906.6814 
  518800    51006.178    199.49218    2032.1391    2435.0848    2710.8146    5145.8994    6657.5524   -1283.5573   -41.888909    7906.8591   -5824.6816          0.5         0.55       0.3025   -1241.6684    7906.8591 
  519000    51006.178    199.62576    1413.6131    2436.7153    2732.3703    5169.0856    6220.6339   -1276.8864   -41.888909    7894.1216   -5826.9779          0.5         0.55       0.3025   -1234.9974    7894.1216 
  519200    51006.178     202.3386    1674.9029    2469.8294    2770.1136     5239.943    6485.8576   -1261.1633   -41.888909    7898.6092   -5828.2715          0.5         0.55       0.3025   -1219.2744    7898.6092 
  519400    51006.178    201.45906    2298.9624    2459.0933    2694.4417     5153.535    6863.6705   -1261.9211   -41.888909    7897.3366   -5825.6887          0.5         0.55       0.3025   -1220.0322    7897.3366 
  519600    51006.178    201.13938    1866.0871    2455.1912    2660.4504    5115.6417    6503.7731    -1294.303   -41.888909      7899.28   -5825.4169          0.5         0.55       0.3025   -1252.4141      7899.28 
  519800    51006.178    199.64067    2371.3486    2436.8973    2657.6905    5094.5878    6858.5696   -1278.4578   -41.888909    7895.6618   -5827.2978          0.5         0.55       0.3025   -1236.5689    7895.6618 
  520000    51006.178    201.70319     3048.524    2462.0733    2734.6933    5196.7666    7464.4806   -1273.0916   -41.888909     7901.729   -5825.9444          0.5         0.55       0.3025   -1231.2027     7901.729 
  520200    51006.178    198.64772    3071.8594    2424.7769    2696.9431    5121.7199    7406.7925   -1277.0772   -41.888909    7911.4539   -5823.5165          0.5         0.55       0.3025   -1235.1883    7911.4539 
  520400    51006.178    193.80917    2728.1376    2365.7156    2726.4762    5092.1918    7121.5791   -1273.4934   -41.888909    7906.2664   -5824.7582          0.5         0.55       0.3025   -1231.6045    7906.2664 
  520600    51006.178    200.05917    2107.9859    2442.0056     2761.222    5203.2277     6771.301   -1269.5919   -41.888909    7908.1258   -5824.4857          0.5         0.55       0.3025    -1227.703    7908.1258 
  520800    51006.178     199.2927    1790.5097    2432.6498    2704.7262    5137.3761    6469.2875   -1275.3791   -41.888909    7900.2307   -5825.8731          0.5         0.55       0.3025   -1233.4902    7900.2307 
  521000    51006.178    196.02145    1708.9062    2392.7196    2718.0936    5110.8133    6382.0221   -1271.5774   -41.888909    7907.3918   -5823.9081          0.5         0.55       0.3025   -1229.6885    7907.3918 
  521200    51006.178    199.58159    1210.6743    2436.1761    2740.3445    5176.5206    6077.1083   -1276.9523   -41.888909    7898.9065   -5822.9638          0.5         0.55       0.3025   -1235.0634    7898.9065 
  521400    51006.178    198.88632    2504.0458    2427.6894    2721.1772    5148.8666    7011.5581   -1279.6344   -41.888909    7909.0025   -5824.3727          0.5         0.55       0.3025   -1237.7454    7909.0025 
  521600    51006.178    198.98459     3028.124    2428.8889    2717.8651     5146.754     7399.293   -1277.3105   -41.888909    7895.6378   -5823.3162          0.5         0.55       0.3025   -1235.4216    7895.6378 
  521800    51006.178    199.61297    2828.7374    2436.5592    2763.0004    5199.5596    7303.7804   -1249.1223   -41.888909    7907.6779   -5825.6249          0.5         0.55       0.3025   -1207.2334    7907.6779 
  522000    51006.178    194.60516    2312.6027    2375.4317    2731.2033     5106.635    6826.9172   -1275.8462   -41.888909    7907.8022   -5823.6334          0.5         0.55       0.3025   -1233.9573    7907.8022 
  522200    51006.178     195.4305    3455.6852    2385.5063      2668.62    5054.1263    7624.7165   -1269.1516   -41.888909    7908.7059   -5824.9348          0.5         0.55       0.3025   -1227.2627    7908.7059 
  522400    51006.178    203.82492    2813.5041     2487.972    2677.9422    5165.9142    7258.8034   -1291.2521   -41.888909    7913.1041   -5825.4613          0.5         0.55       0.3025   -1249.3632    7913.1041 
  522600    51006.178    198.86125    1810.9407    2427.3834    2764.0079    5191.3913    6538.5008   -1272.0195   -41.888909    7907.3036   -5824.6348          0.5         0.55       0.3025   -1230.1306    7907.3036 
  522800    51006.178    194.58278    1704.9604    2375.1586    2731.5865    5106.7451    6375.0188   -1262.7395   -41.888909    7896.5388    -5824.058          0.5         0.55       0.3025   -1220.8506    7896.5388 
  523000    51006.178    202.01216    2501.0377    2465.8447    2749.0397    5214.8843    7075.3382   -1274.4182   -41.888909    7900.9627   -5824.1967          0.5         0.55       0.3025   -1232.5293    7900.9627 
  523200    51006.178    197.97873    2268.5183     2416.611     2719.447     5136.058     6823.547   -1287.2272   -41.888909    7914.0797   -5820.8759          0.5         0.55       0.3025   -1245.3383    7914.0797 
  523400    51006.178    199.72301    2839.0867    2437.9024    2713.9479    5151.8502    7263.7696   -1263.3482   -41.888909    7899.2489   -5821.9876          0.5         0.55       0.3025   -1221.4593    7899.2489 
  523600    51006.178    202.31388    2539.6683    2469.5276    2700.1047    5169.6323    7058.8224    -1272.474   -41.888909    7912.3376   -5823.6515          0.5         0.55       0.3025   -1230.5851    7912.3376 
  523800    51006.178     198.7148    2076.3132    2425.5958    2752.0519    5177.6477    6722.1606   -1273.7993   -41.888909     7905.541    -5823.043          0.5         0.55       0.3025   -1231.9104     7905.541 
  524000    51006.178    195.62527    2152.7935    2387.8837    2727.9571    5115.8408    6717.2453   -1273.6866   -41.888909    7918.0839   -5823.9469          0.5         0.55       0.3025   -1231.7977    7918.0839 
  524200    51006.178    201.82001    2396.1915    2463.4992    2756.5657    5220.0649    7002.5266   -1259.8354   -41.888909    7911.1629    -5823.689          0.5         0.55       0.3025   -1217.9465    7911.1629 
  524400    51006.178    200.68219    2040.7484    2449.6105    2724.5219    5174.1325    6692.1897   -1270.1311   -41.888909    7904.9181   -5824.9909          0.5         0.55       0.3025   -1228.2421    7904.9181 
  524600    51006.178     201.0527    1666.4687    2454.1331    2684.0883    5138.2214    6377.8621   -1290.7171   -41.888909    7912.2077   -5822.3034          0.5         0.55       0.3025   -1248.8282    7912.2077 
  524800    51006.178     204.2335    1933.1732    2492.9593    2708.8487     5201.808     6639.843   -1281.5332   -41.888909    7912.5299   -5825.0074          0.5         0.55       0.3025   -1239.6443    7912.5299 
  525000    51006.178    198.12034    1886.4163    2418.3395    2685.9606    5104.3002    6507.5539   -1269.0174   -41.888909    7899.1001    -5824.839          0.5         0.55       0.3025   -1227.1285    7899.1001 
  525200    51006.178    200.83026    2054.3162     2451.418     2716.732      5168.15    6696.2999   -1253.4266   -41.888909    7903.6863    -5825.932          0.5         0.55       0.3025   -1211.5376    7903.6863 
  525400    51006.178    203.41787    2061.0188    2483.0033    2685.4419    5168.4452     6701.581   -1263.1719   -41.888909    7906.9687   -5825.1459          0.5         0.55       0.3025    -1221.283    7906.9687 
  525600    51006.178    199.67592    2056.2368    2437.3276    2686.2414     5123.569    6653.1476   -1276.0943   -41.888909    7905.9371   -5824.2402          0.5         0.55       0.3025   -1234.2054    7905.9371 
  525800    51006.178    205.47166    2086.0666    2508.0728    2717.0407    5225.1135    6776.8817   -1298.4389   -41.888909    7921.7986   -5822.1378          0.5         0.55       0.3025     -1256.55    7921.7986 
  526000    51006.178    196.52565     1837.985     2398.874    2731.4202    5130.2942    6497.5212   -1275.4372   -41.888909    7906.9786   -5822.4139          0.5         0.55       0.3025   -1233.5483    7906.9786 
  526200    51006.178    198.56352    1550.0706    2423.7492    2749.0032    5172.7524    6325.8077   -1267.9117   -41.888909    7907.8326   -5824.0139          0.5         0.55       0.3025   -1226.0228    7907.8326 
  526400    51006.178    198.44003    1656.5306    2422.2418    2762.5752    5184.8171    6417.0651   -1277.9847   -41.888909    7918.5162   -5824.0583          0.5         0.55       0.3025   -1236.0958    7918.5162 
  526600    51006.178    200.71655    2353.3043    2450.0299    2728.0079    5178.0378    6928.5968   -1278.6758   -41.888909    7918.5109   -5823.2231          0.5         0.55       0.3025   -1236.7869    7918.5109 
  526800    51006.178    204.20725    2667.5683    2492.6389    2779.9749    5272.6138    7256.9453    -1258.578   -41.888909    7911.7107   -5822.1614          0.5         0.55       0.3025   -1216.6891    7911.7107 
  527000    51006.178    198.39884    3505.2899     2421.739    2759.2416    5180.9805    7788.4703   -1262.5229   -41.888909    7917.6952   -5823.7218          0.5         0.55       0.3025    -1220.634    7917.6952 
  527200    51006.178    198.55031    3959.2818    2423.5879    2759.2501     5182.838      8128.04   -1281.1498   -41.888909    7917.7777   -5822.9809          0.5         0.55       0.3025   -1239.2609    7917.7777 
  527400    51006.178    202.46194    2765.7849    2471.3348    2745.0211     5216.356    7273.7481   -1281.4208   -41.888909    7906.0891   -5820.9155          0.5         0.55       0.3025   -1239.5319    7906.0891 
  527600    51006.178    196.77368    1499.9567    2401.9017    2748.7815    5150.6832    6266.4602    -1252.636   -41.888909    7909.3649   -5824.3256          0.5         0.55       0.3025   -1210.7471    7909.3649 
  527800    51006.178     199.1439    2035.4131    2430.8335    2735.8109    5166.6444    6680.7328   -1274.0202   -41.888909    7905.5041    -5824.385          0.5         0.55       0.3025   -1232.1313    7905.5041 
  528000    51006.178    200.56799    2288.4697    2448.2165    2766.1164     5214.333    6916.6633   -1264.5184   -41.888909     7906.386   -5823.0375          0.5         0.55       0.3025   -1222.6295     7906.386 
  528200    51006.178    198.33613     2027.535    2420.9736    2707.7293    5128.7029     6636.931   -1290.0585   -41.888909    7905.0183   -5819.8063          0.5         0.55       0.3025   -1248.1696    7905.0183 
  528400    51006.178    199.92231    1770.4755    2440.3352    2714.0475    5154.3826    6471.3911   -1276.2253   -41.888909    7909.6693   -5822.4659          0.5         0.55       0.3025   -1234.3364    7909.6693 
  528600    51006.178    201.17238    1804.4815     2455.594     2718.692     5174.286    6516.5907   -1282.0956   -41.888909    7908.0048   -5822.0975          0.5         0.55       0.3025   -1240.2067    7908.0048 
  528800    51006.178    201.90121    1959.6262    2464.4904     2711.017    5175.5074      6633.22   -1278.9577   -41.888909    7914.5707   -5818.2221          0.5         0.55       0.3025   -1237.0687    7914.5707 
  529000    51006.178    199.55011    1994.3082    2435.7919    2730.4616    5166.2535    6649.7651   -1269.5626   -41.888909    7899.5122   -5819.3892          0.5         0.55       0.3025   -1227.6737    7899.5122 
  529200    51006.178     198.3314     1892.936    2420.9158    2711.2045    5132.1203    6540.2239     -1265.16   -41.888909    7898.3513   -5821.1576          0.5         0.55       0.3025   -1223.2711    7898.3513 
  529400    51006.178    202.94335    1598.6897    2477.2112    2753.2354    5230.4466    6419.6683   -1266.5957   -41.888909    7904.4109      -5822.4          0.5         0.55       0.3025   -1224.7068    7904.4109 
  529600    51006.178    197.24876    2695.2851    2407.7006    2744.1307    5151.8313    7156.7805   -1258.1095   -41.888909    7897.5499   -5823.7177          0.5         0.55       0.3025   -1216.2206    7897.5499 
  529800    51006.178    199.53219    3482.6895    2435.5732    2731.7937    5167.3669    7758.0448   -1259.8574   -41.888909    7909.5028   -5825.1697          0.5         0.55       0.3025   -1217.9685    7909.5028 
  530000    51006.178    202.49688    2762.2764    2471.7614    2736.0458    5207.8072    7262.5894   -1256.5629   -41.888909    7895.1668   -5825.4264          0.5         0.55       0.3025    -1214.674    7895.1668 
  530200    51006.178    195.24105    2053.4759    2383.1937    2724.7509    5107.9446    6635.4695   -1280.3941   -41.888909    7907.2305   -5824.9442          0.5         0.55       0.3025   -1238.5052    7907.2305 
  530400    51006.178    203.71384    1384.0379    2486.6161    2697.2353    5183.8515    6213.3996   -1286.1924   -41.888909    7901.6109    -5825.173          0.5         0.55       0.3025   -1244.3035    7901.6109 
  530600    51006.178    199.98796     1287.042    2441.1365    2730.9587    5172.0951    6129.4906   -1289.1972   -41.888909    7913.3616   -5824.1299          0.5         0.55       0.3025   -1247.3083    7913.3616 
  530800    51006.178     203.0665    1993.5454    2478.7144    2671.1938    5149.9082    6632.8524   -1274.0554   -41.888909    7911.2962   -5825.5611          0.5         0.55       0.3025   -1232.1665    7911.2962 
  531000    51006.178    198.73489    2457.0401     2425.841    2754.5899    5180.4308    7008.1561   -1256.0355   -41.888909    7904.0266   -5825.2073          0.5         0.55       0.3025   -1214.1465    7904.0266 
  531200    51006.178    198.53968    2364.8184    2423.4581    2736.3044    5159.7626    6918.8866    -1267.949   -41.888909    7909.4759   -5823.5458          0.5         0.55       0.3025   -1226.0601    7909.4759 
  531400    51006.178    200.34569    2812.1611     2445.503     2682.343     5127.846    7219.7362   -1286.2866   -41.888909    7899.4441   -5823.0031          0.5         0.55       0.3025   -1244.3977    7899.4441 
  531600    51006.178    200.10253    3053.5844    2442.5349    2762.2514    5204.7864    7476.2647   -1256.9503   -41.888909    7908.3568   -5822.3488          0.5         0.55       0.3025   -1215.0613    7908.3568 
  531800    51006.178    199.40188    1924.2984    2433.9826    2766.9232    5200.9058     6632.339   -1264.9057   -41.888909    7908.0715   -5821.5837          0.5         0.55       0.3025   -1223.0168    7908.0715 
  532000    51006.178    195.22333    1110.2555    2382.9774    2789.3097     5172.287    5998.1758   -1277.0615   -41.888909    7904.6288   -5823.0315          0.5         0.55       0.3025   -1235.1726    7904.6288 
  532200    51006.178    200.58598    1664.6541    2448.4361    2759.9871    5208.4232     6446.714   -1268.8152   -41.888909    7900.1316   -5824.1488          0.5         0.55       0.3025   -1226.9263    7900.1316 
  532400    51006.178    202.49526    1902.5811    2471.7416    2672.1232    5143.8648    6559.1431    -1298.543   -41.888909    7910.6183   -5823.6384          0.5         0.55       0.3025   -1256.6541    7910.6183 
  532600    51006.178    201.41352    2606.8961    2458.5374    2675.6658    5134.2032    7073.4022   -1265.3639   -41.888909    7899.4839   -5826.3469          0.5         0.55       0.3025    -1223.475    7899.4839 
  532800    51006.178    202.98169    2672.1208    2477.6792    2748.7966    5226.4758    7214.1937   -1243.4315   -41.888909    7899.5779   -5826.9599          0.5         0.55       0.3025   -1201.5425    7899.5779 
  533000    51006.178    200.37053    2822.0779    2445.8063    2725.1556    5170.9619    7270.2289   -1259.0048   -41.888909    7894.4971   -5825.9808          0.5         0.55       0.3025   -1217.1159    7894.4971 
  533200    51006.178    198.35742    1883.9331    2421.2334    2736.8274    5158.0609    6559.4675    -1272.271   -41.888909    7906.6174   -5825.3436          0.5         0.55       0.3025   -1230.3821    7906.6174 
  533400    51006.178    203.00888    1517.6306    2478.0111    2723.0444    5201.0555    6329.9796   -1276.7636   -41.888909     7906.052   -5822.5234          0.5         0.55       0.3025   -1234.8747     7906.052 
  533600    51006.178    199.68494    1653.4615    2437.4377    2753.0992    5190.5368    6420.5018   -1264.8182   -41.888909    7896.5432    -5822.093          0.5         0.55       0.3025   -1222.9293    7896.5432 
  533800    51006.178    198.94324    1308.9821    2428.3842    2707.8364    5136.2206    6109.9368   -1283.0948   -41.888909    7916.1822    -5822.384          0.5         0.55       0.3025   -1241.2059    7916.1822 
  534000    51006.178     203.0126     2181.089    2478.0565     2759.518    5237.5745    6860.0272   -1278.5625   -41.888909    7907.7357    -5824.095          0.5         0.55       0.3025   -1236.6736    7907.7357 
  534200    51006.178    200.62101    2812.5206    2448.8637    2718.6779    5167.5416    7259.6991   -1288.2959   -41.888909    7918.6261   -5823.1554          0.5         0.55       0.3025    -1246.407    7918.6261 
  534400    51006.178    199.92558    2374.5803     2440.375    2737.2392    5177.6142    6943.9998   -1287.3826   -41.888909    7921.1088    -5821.265          0.5         0.55       0.3025   -1245.4937    7921.1088 
  534600    51006.178    201.75578    2865.7153    2462.7152     2764.235    5226.9502    7358.6778   -1281.1549   -41.888909    7916.8677   -5822.3691          0.5         0.55       0.3025    -1239.266    7916.8677 
  534800    51006.178    195.95881    2405.1844     2391.955    2774.6715    5166.6265    6955.7778   -1275.3809   -41.888909     7912.404   -5824.5547          0.5         0.55       0.3025    -1233.492     7912.404 
  535000    51006.178     201.8083    2100.1565    2463.3562    2780.8614    5244.2177    6806.4669   -1258.8308   -41.888909    7912.6518   -5825.7966          0.5         0.55       0.3025   -1216.9419    7912.6518 
  535200    51006.178    199.86432    1665.5041    2439.6272    2780.5599    5220.1871    6459.1103   -1277.8682   -41.888909    7913.2902   -5822.9018          0.5         0.55       0.3025   -1235.9793    7913.2902 
  535400    51006.178    199.70759    1559.2705    2437.7141     2719.146    5156.8601     6316.759   -1270.5285   -41.888909    7904.2854    -5823.707          0.5         0.55       0.3025   -1228.6396    7904.2854 
  535600    51006.178    199.21617    1850.3831    2431.7157    2728.0925    5159.8082    6536.2579   -1255.2422   -41.888909    7906.0889   -5822.9738          0.5         0.55       0.3025   -1213.3532    7906.0889 
  535800    51006.178    203.80022    2147.3763    2487.6705    2743.8677    5231.5382     6828.913   -1264.1811   -41.888909    7901.9639   -5822.9769          0.5         0.55       0.3025   -1222.2922    7901.9639 
  536000    51006.178    196.90485     2165.609    2403.5027     2723.863    5127.3657    6738.3033   -1275.1353   -41.888909    7912.7649   -5824.1187          0.5         0.55       0.3025   -1233.2464    7912.7649 
  536200    51006.178    200.77232     2801.748    2450.7106     2738.278    5188.9886    7273.1327   -1257.0523   -41.888909    7908.1073   -5824.6803          0.5         0.55       0.3025   -1215.1634    7908.1073 
  536400    51006.178    199.21707    2414.4122    2431.7267    2754.4258    5186.1524     6982.168   -1267.2443   -41.888909    7906.2924   -5824.6473          0.5         0.55       0.3025   -1225.3554    7906.2924 
  536600    51006.178    198.19572    2695.8395    2419.2596    2750.8662    5170.1258    7175.4874   -1278.2938   -41.888909    7905.1403   -5825.3347          0.5         0.55       0.3025   -1236.4049    7905.1403 
  536800    51006.178     195.6057    2553.5291    2387.6447    2696.8244    5084.4691    6983.9699   -1269.6767   -41.888909    7907.2552   -5823.0344          0.5         0.55       0.3025   -1227.7878    7907.2552 
  537000    51006.178    200.81295    1713.8688    2451.2066    2738.2311    5189.4377    6464.3381   -1280.1272   -41.888909     7899.672    -5822.636          0.5         0.55       0.3025   -1238.2383     7899.672 
  537200    51006.178    203.44942    1772.6481    2483.3884    2670.1902    5153.5786    6472.2033   -1294.9694   -41.888909    7899.7087   -5823.6015          0.5         0.55       0.3025   -1253.0805    7899.7087 
  537400    51006.178    198.28799    1562.2489    2420.3859    2689.7487    5110.1345     6272.249   -1284.9006   -41.888909    7905.6122    -5826.029          0.5         0.55       0.3025   -1243.0116    7905.6122 
  537600    51006.178     200.9707    2008.6058    2453.1322    2700.2596    5153.3918     6647.539   -1275.4746   -41.888909    7910.0214   -5824.9161          0.5         0.55       0.3025   -1233.5857    7910.0214 
  537800    51006.178    206.85892    1737.5625    2525.0063    2697.5105    5222.5167    6515.0422   -1278.1815   -41.888909    7905.3226   -5823.1295          0.5         0.55       0.3025   -1236.2926    7905.3226 
  538000    51006.178    202.95645    2093.1844    2477.3711    2779.6791    5257.0501     6814.113   -1263.8726   -41.888909    7903.7187   -5820.7044          0.5         0.55       0.3025   -1221.9837    7903.7187 
  538200    51006.178    198.36536    2630.9561    2421.3303    2730.1021    5151.4324    7108.5291    -1261.306   -41.888909    7911.9531   -5823.5274          0.5         0.55       0.3025   -1219.4171    7911.9531 
  538400    51006.178    205.07782    2937.1703    2503.2654    2690.5269    5193.7923    7378.6734   -1270.5665   -41.888909    7903.6419   -5823.9068          0.5         0.55       0.3025   -1228.6776    7903.6419 
  538600    51006.178    201.38274     3935.182    2458.1617    2770.8873     5229.049    8156.3238   -1261.1548   -41.888909    7898.0018   -5825.0493          0.5         0.55       0.3025   -1219.2659    7898.0018 
  538800    51006.178    195.56298    2992.0715    2387.1234     2732.477    5119.6004     7345.321   -1271.5606   -41.888909    7896.0277   -5823.6434          0.5         0.55       0.3025   -1229.6717    7896.0277 
  539000    51006.178    200.77345    1480.8192    2450.7244    2746.7795    5197.5039     6299.045   -1282.5048   -41.888909    7906.7699   -5822.2964          0.5         0.55       0.3025   -1240.6159    7906.7699 
  539200    51006.178    196.80733    1380.7518    2402.3124    2752.1438    5154.4563    6181.5599   -1260.7413   -41.888909    7908.2893    -5821.117          0.5         0.55       0.3025   -1218.8524    7908.2893 
  539400    51006.178    198.80169    1679.4009    2426.6564    2722.6833    5149.3397    6398.6003   -1264.3177   -41.888909    7908.7735   -5820.8107          0.5         0.55       0.3025   -1222.4288    7908.7735 
  539600    51006.178    198.63754    1888.1934    2424.6527    2761.8003     5186.453    6591.0287   -1271.6782   -41.888909    7905.9558   -5817.7644          0.5         0.55       0.3025   -1229.7892    7905.9558 
  539800    51006.178    196.30333    1925.3418    2396.1603    2696.8932    5093.0535    6525.2629   -1279.1502   -41.888909    7913.8557   -5817.3256          0.5         0.55       0.3025   -1237.2612    7913.8557 
  540000    51006.178    198.62402    2818.9188    2424.4876    2737.3743     5161.862     7258.779   -1274.3605   -41.888909    7902.3312   -5820.6176          0.5         0.55       0.3025   -1232.4716    7902.3312 
  540200    51006.178    197.03036    2946.5086    2405.0348    2756.8569    5161.8917    7353.7193   -1278.9529   -41.888909    7910.8122   -5820.5728          0.5         0.55       0.3025    -1237.064    7910.8122 
  540400    51006.178     202.2472    2876.6948    2468.7137    2676.3072    5145.0208    7284.9158   -1267.3441   -41.888909    7898.9079   -5823.9158          0.5         0.55       0.3025   -1225.4552    7898.9079 
  540600    51006.178    200.54587    2359.9927    2447.9466    2702.4099    5150.3564    6905.8908   -1264.3431   -41.888909    7904.6234   -5824.5931          0.5         0.55       0.3025   -1222.4542    7904.6234 
  540800    51006.178    200.16752     2180.532    2443.3282     2764.254    5207.5822    6829.6206    -1256.603   -41.888909    7896.1718   -5825.6042          0.5         0.55       0.3025   -1214.7141    7896.1718 
  541000    51006.178    198.47954      2509.29    2422.7241    2688.7265    5111.4506    6978.0432   -1264.8985   -41.888909    7895.5252   -5822.6522          0.5         0.55       0.3025   -1223.0096    7895.5252 
  541200    51006.178    200.38567    2452.9203     2445.991    2742.5096    5188.5006    7013.1613   -1273.5913   -41.888909    7897.0561   -5821.4075          0.5         0.55       0.3025   -1231.7024    7897.0561 
  541400    51006.178    198.56891    2545.3549     2423.815    2763.2938    5187.1087     7080.529   -1268.7219   -41.888909    7913.2952   -5822.0075          0.5         0.55       0.3025    -1226.833    7913.2952 
  541600    51006.178    200.77646    2202.8843    2450.7612    2703.1233    5153.8845    6792.5502   -1278.5688   -41.888909    7894.1456   -5824.4226          0.5         0.55       0.3025   -1236.6799    7894.1456 
  541800    51006.178    195.60723    2331.8647    2387.6635    2717.7863    5105.4498    6840.0605   -1275.0628   -41.888909    7901.6526   -5822.5223          0.5         0.55       0.3025   -1233.1739    7901.6526 
  542000    51006.178    198.82211    2212.4395    2426.9057    2767.7246    5194.6303    6840.4038    -1270.778   -41.888909    7900.3679   -5821.5603          0.5         0.55       0.3025   -1228.8891    7900.3679 
  542200    51006.178    194.99843    2607.3829    2380.2322    2769.0403    5149.2725    7088.8337   -1274.4932   -41.888909    7909.6055   -5819.1155          0.5         0.55       0.3025   -1232.6043    7909.6055 
  542400    51006.178    201.05111    3220.3736    2454.1137    2722.1862       5176.3    7571.8482   -1285.8113   -41.888909    7908.3635   -5819.5023          0.5         0.55       0.3025   -1243.9224    7908.3635 
  542600    51006.178    200.96756    3305.7499    2453.0938    2743.7653    5196.8591    7655.9165   -1276.1953   -41.888909    7905.3933   -5818.3438          0.5         0.55       0.3025   -1234.3064    7905.3933 
  542800    51006.178    198.61838    2212.8133    2424.4188     2683.892    5108.3108    6754.3624   -1284.3626   -41.888909    7898.8468   -5821.5201          0.5         0.55       0.3025   -1242.4737    7898.8468 
  543000    51006.178    204.09956    1939.1965    2491.3244    2726.6468    5217.9712    6660.4867   -1288.4208   -41.888909    7902.4155    -5824.966          0.5         0.55       0.3025   -1246.5319    7902.4155 
  543200    51006.178    198.35463    2447.8025    2421.1994    2727.9297    5149.1291    6969.9827   -1268.9512   -41.888909    7900.2797   -5827.2124          0.5         0.55       0.3025   -1227.0623    7900.2797 
  543400    51006.178     196.8654    2226.0386    2403.0212     2740.801    5143.8223    6799.7118   -1264.7697   -41.888909    7896.3434   -5826.8047          0.5         0.55       0.3025   -1222.8808    7896.3434 
  543600    51006.178    201.38824    1445.5872    2458.2289    2708.7761     5167.005    6242.3379   -1284.8632   -41.888909     7898.059   -5828.0574          0.5         0.55       0.3025   -1242.9742     7898.059 
  543800    51006.178    200.34222    2004.4894    2445.4607    2714.2404    5159.7011    6650.7862   -1272.9051   -41.888909    7900.3608   -5824.2124          0.5         0.55       0.3025   -1231.0162    7900.3608 
  544000    51006.178    201.38905    2782.5368    2458.2387    2719.7371    5177.9759    7247.8293   -1276.9818   -41.888909    7896.2702    -5826.397          0.5         0.55       0.3025   -1235.0929    7896.2702 
  544200    51006.178     201.2302    2749.4951    2456.2997    2739.0515    5195.3512    7240.6258   -1266.8939   -41.888909     7914.342   -5824.1826          0.5         0.55       0.3025    -1225.005     7914.342 
  544400    51006.178    196.77115    2026.7182    2401.8707    2704.5653     5106.436    6614.0566   -1304.4162   -41.888909    7901.6225   -5825.0778          0.5         0.55       0.3025   -1262.5272    7901.6225 
  544600    51006.178    202.81309    2586.8735    2475.6212    2704.3572    5179.9784    7104.2831   -1284.4989   -41.888909    7909.4145   -5822.1446          0.5         0.55       0.3025     -1242.61    7909.4145 
  544800    51006.178    197.16949    1787.0271    2406.7331    2770.6431    5177.3762    6506.6971   -1271.1192   -41.888909    7898.9498   -5823.1153          0.5         0.55       0.3025   -1229.2303    7898.9498 
  545000    51006.178    197.10329     1876.917     2405.925    2718.7883    5124.7132    6520.9007   -1283.5372   -41.888909    7905.9597   -5822.3959          0.5         0.55       0.3025   -1241.6483    7905.9597 
  545200    51006.178    201.32798    2046.7633    2457.4933    2785.7469    5243.2402    6765.7718   -1266.8916   -41.888909    7907.1037   -5821.9639          0.5         0.55       0.3025   -1225.0026    7907.1037 
  545400    51006.178    198.09899     1703.097    2418.0789    2741.7968    5159.8757    6426.7632   -1272.8014   -41.888909      7906.59   -5824.4976          0.5         0.55       0.3025   -1230.9125      7906.59 
  545600    51006.178    198.99054    1322.9189    2428.9616     2706.133    5135.0946    6119.1779   -1290.3005   -41.888909    7905.3511   -5823.8088          0.5         0.55       0.3025   -1248.4116    7905.3511 
  545800    51006.178    203.48735     2223.338    2483.8515    2735.5004    5219.3519    6873.2325   -1286.0726   -41.888909    7910.0999   -5824.0085          0.5         0.55       0.3025   -1244.1837    7910.0999 
  546000    51006.178    203.86655    3237.3367    2488.4801    2692.7215    5181.2016    7589.3682   -1287.1517   -41.888909    7909.8902   -5823.0093          0.5         0.55       0.3025   -1245.2628    7909.8902 
  546200    51006.178    200.77614    3129.5562    2450.7573    2696.8786    5147.6359    7475.6276   -1277.0311   -41.888909    7902.8405   -5823.9123          0.5         0.55       0.3025   -1235.1422    7902.8405 
  546400    51006.178    203.85945    2930.9872    2488.3934    2744.5844    5232.9778    7413.2594   -1274.8327   -41.888909    7893.3576    -5826.319          0.5         0.55       0.3025   -1232.9438    7893.3576 
  546600    51006.178    199.91654    2465.2738    2440.2647    2683.2136    5123.4783    6957.3283   -1285.1468   -41.888909    7899.2907   -5823.7361          0.5         0.55       0.3025   -1243.2578    7899.2907 
  546800    51006.178    200.15072    2292.1318    2443.1232     2743.069    5186.1922    6891.2467    -1280.041   -41.888909    7901.3707   -5823.8088          0.5         0.55       0.3025   -1238.1521    7901.3707 
  547000    51006.178    200.57073    1969.2201      2448.25    2764.0922    5212.3422    6677.1914   -1265.6126   -41.888909    7904.4092   -5822.4169          0.5         0.55       0.3025   -1223.7237    7904.4092 
  547200    51006.178    195.68505    1369.7037    2388.6133    2686.9035    5075.5168    6094.4021   -1286.5657   -41.888909     7903.937   -5823.1863          0.5         0.55       0.3025   -1244.6768     7903.937 
  547400    51006.178    197.55968     1070.663    2411.4959    2759.4536    5170.9495    5967.3866   -1266.7786   -41.888909    7911.1844   -5822.9251          0.5         0.55       0.3025   -1224.8896    7911.1844 
  547600    51006.178    198.54539    1415.8623    2423.5279     2771.843    5195.3709    6248.5923   -1262.9554   -41.888909    7901.7809   -5823.1282          0.5         0.55       0.3025   -1221.0665    7901.7809 
  547800    51006.178    195.53839    1793.8815    2386.8232    2699.7204    5086.5436    6420.9632   -1275.4684   -41.888909    7902.1039   -5824.6487          0.5         0.55       0.3025   -1233.5795    7902.1039 
  548000    51006.178     199.5491    2309.2664    2435.7796    2734.9138    5170.6933    6888.4938   -1269.9418   -41.888909    7900.8703    -5823.501          0.5         0.55       0.3025   -1228.0529    7900.8703 
  548200    51006.178    202.81312    1880.7278    2475.6215    2717.3021    5192.9237    6591.9459    -1283.723   -41.888909    7898.7795   -5824.0036          0.5         0.55       0.3025   -1241.8341    7898.7795 
  548400    51006.178    199.47672    2128.4164    2434.8961    2660.8573    5095.7533    6679.0244    -1278.019   -41.888909    7904.8006   -5822.9183          0.5         0.55       0.3025   -1236.1301    7904.8006 
  548600    51006.178    201.07589    2029.0077    2454.4162    2760.1291    5214.5453    6723.8689   -1282.9403   -41.888909    7902.8123   -5822.8092          0.5         0.55       0.3025   -1241.0513    7902.8123 
  548800    51006.178    200.11417    2861.4504     2442.677    2730.4743    5173.1513    7301.7064   -1279.1219   -41.888909    7913.7946   -5822.2728          0.5         0.55       0.3025    -1237.233    7913.7946 
  549000    51006.178    197.83427    1942.1756    2414.8476    2697.1903    5112.0379    6556.7694   -1272.8028   -41.888909     7894.659   -5824.5348          0.5         0.55       0.3025   -1230.9138     7894.659 
  549200    51006.178    202.68869    1583.6926    2474.1027    2738.9027    5213.0053    6391.0711   -1272.2744   -41.888909    7894.4173   -5826.1235          0.5         0.55       0.3025   -1230.3855    7894.4173 
  549400    51006.178    198.73275    1576.1339    2425.8149    2704.4479    5130.2628    6302.7059   -1290.6793   -41.888909     7902.026   -5825.3633          0.5         0.55       0.3025   -1248.7903     7902.026 
  549600    51006.178    199.68362    2346.3324    2437.4216    2704.2688    5141.6904    6887.0632   -1290.5625   -41.888909     7910.849   -5822.9683          0.5         0.55       0.3025   -1248.6736     7910.849 
  549800    51006.178    197.97709    2941.9911    2416.5909    2748.0816    5164.6725    7353.1396   -1263.7986   -41.888909    7898.7409   -5826.4443          0.5         0.55       0.3025   -1221.9097    7898.7409 
  550000    51006.178    203.03637    3593.5518    2478.3466    2775.9362    5254.2828    7927.4282   -1244.3455   -41.888909    7909.8684   -5824.7268          0.5         0.55       0.3025   -1202.4566    7909.8684 
  550200    51006.178    202.61016    3796.5401    2473.1441    2729.4516    5202.5957    8026.7386   -1262.3282   -41.888909    7894.8224   -5824.4351          0.5         0.55       0.3025   -1220.4393    7894.8224 
  550400    51006.178    199.70238    3319.8317    2437.6505    2729.0852    5166.7358    7636.2682   -1270.2017   -41.888909    7901.7029   -5823.5794          0.5         0.55       0.3025   -1228.3128    7901.7029 
  550600    51006.178    198.97794    2259.5115    2428.8077     2752.674    5181.4817    6862.2708   -1257.3598   -41.888909    7908.2528   -5822.4655          0.5         0.55       0.3025   -1215.4709    7908.2528 
  550800    51006.178    202.59351    1708.7792    2472.9409     2722.227    5195.1679    6466.2823    -1293.513   -41.888909    7903.7075   -5821.1506          0.5         0.55       0.3025   -1251.6241    7903.7075 
  551000    51006.178    199.68052    1998.1971    2437.3837    2677.9227    5115.3064    6601.7108   -1284.2301   -41.888909    7908.5589   -5823.2124          0.5         0.55       0.3025   -1242.3411    7908.5589 
  551200    51006.178    201.86011    1779.0673    2463.9887    2760.1277    5224.1164    6547.5161   -1277.3426   -41.888909    7897.9131    -5825.845          0.5         0.55       0.3025   -1235.4537    7897.9131 
  551400    51006.178    200.25164    1425.4514    2444.3551    2763.3132    5207.6683    6268.0228   -1281.4759   -41.888909    7910.7021   -5823.9975          0.5         0.55       0.3025   -1239.5869    7910.7021 
  551600    51006.178    199.73841    2267.8838    2438.0903    2730.7844    5168.8747    6855.8918   -1275.4002   -41.888909    7904.8025   -5822.8868          0.5         0.55       0.3025   -1233.5113    7904.8025 
  551800    51006.178    201.84447    2135.8899    2463.7977    2770.3535    5234.1512    6822.9816   -1291.3698   -41.888909    7916.3072   -5820.7785          0.5         0.55       0.3025   -1249.4809    7916.3072 
  552000    51006.178    199.28718    2304.1272    2432.5824    2747.1433    5179.7257    6893.7032   -1259.8841   -41.888909    7903.6651   -5821.8502          0.5         0.55       0.3025   -1217.9951    7903.6651 
  552200    51006.178    199.16175    1631.2245    2431.0514    2726.0672    5157.1186    6370.5421   -1296.0097   -41.888909    7910.0018   -5823.9049          0.5         0.55       0.3025   -1254.1208    7910.0018 
  552400    51006.178    205.52269    2320.2162    2508.6957    2723.4081    5232.1038    6958.0495   -1277.9567   -41.888909    7904.1512   -5823.8779          0.5         0.55       0.3025   -1236.0678    7904.1512 
  552600    51006.178    204.33653    2634.9526    2494.2169    2759.5362    5253.7531    7213.8227   -1268.2904   -41.888909    7915.3184    -5824.073          0.5         0.55       0.3025   -1226.4015    7915.3184 
  552800    51006.178     198.9699    2544.0203    2428.7096     2723.713    5152.4225      7044.85   -1270.9425   -41.888909    7904.7113   -5825.5431          0.5         0.55       0.3025   -1229.0536    7904.7113 
  553000    51006.178    202.72812    2173.1365     2474.584    2747.2257    5221.8097    6838.3468   -1282.4539   -41.888909    7908.5953   -5823.9883          0.5         0.55       0.3025    -1240.565    7908.5953 
  553200    51006.178    200.70421    2278.7009    2449.8793     2726.993    5176.8724     6871.936   -1272.5454   -41.888909    7910.7889   -5822.8224          0.5         0.55       0.3025   -1230.6565    7910.7889 
  553400    51006.178    196.92982    2260.2221    2403.8075    2729.2333    5133.0408    6814.3585   -1288.0841   -41.888909    7903.4722   -5823.3685          0.5         0.55       0.3025   -1246.1952    7903.4722 
  553600    51006.178    201.65444    2641.7215    2461.4782    2741.4391    5202.9174    7168.0221   -1263.6446   -41.888909    7904.3499   -5823.7358          0.5         0.55       0.3025   -1221.7557    7904.3499 
  553800    51006.178    199.79063    2361.9426    2438.7278    2752.6958    5191.4237    6948.4085   -1274.9131   -41.888909    7901.8629   -5823.3734          0.5         0.55       0.3025   -1233.0242    7901.8629 
  554000    51006.178    201.65053    1575.9568    2461.4304    2667.6116    5129.0421    6301.3534   -1278.1242   -41.888909    7904.3506   -5822.8611          0.5         0.55       0.3025   -1236.2353    7904.3506 
  554200    51006.178    196.13873    1336.9078    2394.1511     2804.785    5198.9362    6193.4255   -1256.6153   -41.888909    7902.9734   -5822.5463          0.5         0.55       0.3025   -1214.7264    7902.9734 
  554400    51006.178    201.05311    1880.4235    2454.1382    2740.8057    5194.9438    6593.7397   -1279.9123   -41.888909    7904.1873   -5823.1797          0.5         0.55       0.3025   -1238.0234    7904.1873 
  554600    51006.178    197.60151    2825.8756    2412.0065    2697.9366    5109.9432    7212.0351   -1293.2794   -41.888909    7912.5178   -5824.5179          0.5         0.55       0.3025   -1251.3905    7912.5178 
  554800    51006.178    202.36476    3506.5497    2470.1487    2745.0015    5215.1503    7823.5772    -1268.651   -41.888909    7898.4829   -5824.7799          0.5         0.55       0.3025   -1226.7621    7898.4829 
  555000    51006.178    200.70238    2169.9437     2449.857    2720.5465    5170.4034    6784.5655   -1276.9083   -41.888909    7898.1884   -5824.5032          0.5         0.55       0.3025   -1235.0194    7898.1884 
  555200    51006.178    198.63028    1933.9444    2424.5641    2724.7609     5149.325    6587.9336   -1287.2203   -41.888909    7903.6238   -5823.4927          0.5         0.55       0.3025   -1245.3314    7903.6238 
  555400    51006.178    199.60204    3236.9963    2436.4258    2738.9264    5175.3522    7583.2656    -1267.177   -41.888909    7916.9139   -5826.3522          0.5         0.55       0.3025   -1225.2881    7916.9139 
  555600    51006.178    199.29926     2965.281      2432.73    2753.9908    5186.7208    7392.5126   -1271.2325   -41.888909    7907.6023   -5824.1585          0.5         0.55       0.3025   -1229.3436    7907.6023 
  555800    51006.178    198.03116    2148.3462    2417.2509    2677.0142    5094.2651    6692.3613   -1283.0064   -41.888909    7901.4647   -5826.9007          0.5         0.55       0.3025   -1241.1175    7901.4647 
  556000    51006.178    199.54553    1967.7357     2435.736    2685.9808    5121.7168    6585.4618    -1279.984   -41.888909     7912.453   -5825.5916          0.5         0.55       0.3025   -1238.0951     7912.453 
  556200    51006.178    201.91031     2309.097    2464.6015    2721.7714    5186.3729    6904.0473   -1277.4845   -41.888909    7905.6223   -5825.5029          0.5         0.55       0.3025   -1235.5956    7905.6223 
  556400    51006.178    199.89078    2108.6313    2439.9502    2738.0982    5178.0484    6746.6019   -1272.9447   -41.888909    7905.4075   -5824.1909          0.5         0.55       0.3025   -1231.0558    7905.4075 
  556600    51006.178    197.79667    1608.4352    2414.3887    2686.8936    5101.2823    6297.7535   -1279.8126   -41.888909    7891.5134   -5825.5495          0.5         0.55       0.3025   -1237.9237    7891.5134 
  556800    51006.178    202.80662    1992.9738    2475.5422    2718.5374    5194.0796    6676.5986   -1269.0049   -41.888909    7896.4263   -5821.6126          0.5         0.55       0.3025    -1227.116    7896.4263 
  557000    51006.178    200.78757    1602.7372    2450.8968    2713.1364    5164.0331    6356.2657   -1292.6516   -41.888909    7893.5351   -5823.1455          0.5         0.55       0.3025   -1250.7627    7893.5351 
  557200    51006.178    196.82448    2040.5975    2402.5217    2663.6967    5066.2184    6584.1633   -1281.2315   -41.888909    7911.0661   -5820.4134          0.5         0.55       0.3025   -1239.3426    7911.0661 
  557400    51006.178    198.17692    2041.9716    2419.0301     2768.267    5187.2972    6706.2642   -1284.2183   -41.888909    7904.0454   -5819.8426          0.5         0.55       0.3025   -1242.3294    7904.0454 
  557600    51006.178    200.39111    2482.0585    2446.0575    2725.5215    5171.5791    7017.9148   -1268.0711   -41.888909    7907.5818   -5820.7893          0.5         0.55       0.3025   -1226.1822    7907.5818 
  557800    51006.178    198.54464    2480.8263    2423.5187    2699.4445    5122.9633    6968.3824   -1269.6372   -41.888909    7896.0881    -5822.872          0.5         0.55       0.3025   -1227.7483    7896.0881 
  558000    51006.178    199.40223    2647.4498    2433.9867    2776.5819    5210.5687    7179.9345   -1257.6119   -41.888909    7903.7498   -5825.0267          0.5         0.55       0.3025    -1215.723    7903.7498 
  558200    51006.178    201.49121    2432.2245    2459.4858    2740.1157    5199.6014    7008.8671   -1278.7049   -41.888909    7908.7081   -5822.6411          0.5         0.55       0.3025    -1236.816    7908.7081 
  558400    51006.178    200.49247    2081.4702    2447.2947    2694.6648    5141.9595    6690.3085   -1274.9096   -41.888909    7898.3478   -5822.5519          0.5         0.55       0.3025   -1233.0207    7898.3478 
  558600    51006.178    200.16531    2509.8224    2443.3013    2732.3084    5175.6097    7042.5983    -1279.179   -41.888909    7917.5765     -5823.29          0.5         0.55       0.3025   -1237.2901    7917.5765 
  558800    51006.178    199.57284    2507.9756    2436.0693    2715.6485    5151.7178    7017.3326   -1280.8792   -41.888909    7910.9224   -5825.9525          0.5         0.55       0.3025   -1238.9903    7910.9224 
  559000    51006.178    195.83812    3203.0808    2390.4817    2724.0784    5114.5601    7497.2447   -1266.0875   -41.888909    7906.9582   -5825.1268          0.5         0.55       0.3025   -1224.1986    7906.9582 
  559200    51006.178    200.19225     1900.072    2443.6301    2746.3999    5190.0299    6603.4418   -1271.0614   -41.888909     7899.842   -5826.1581          0.5         0.55       0.3025   -1229.1725     7899.842 
  559400    51006.178    198.73914    1513.0038    2425.8929    2706.7067    5132.5995    6258.0819   -1269.2542   -41.888909    7902.6434    -5825.409          0.5         0.55       0.3025   -1227.3652    7902.6434 
  559600    51006.178    203.88673    2308.3772    2488.7265    2755.1699    5243.8964    6961.0354   -1259.0617   -41.888909    7903.4035   -5826.5688          0.5         0.55       0.3025   -1217.1727    7903.4035 
  559800    51006.178    203.25536    2364.6513    2481.0197    2711.1375    5192.1572    6951.1569   -1268.7449   -41.888909    7903.6149   -5825.7482          0.5         0.55       0.3025   -1226.8559    7903.6149 
  560000    51006.178    198.19431    1626.1037    2419.2424    2711.5104    5130.7528    6340.3671   -1284.4577   -41.888909    7907.2912    -5825.137          0.5         0.55       0.3025   -1242.5687    7907.2912 
  560200    51006.178    200.41989    2087.4681    2446.4088    2767.1857    5213.5945    6766.4052   -1272.5289   -41.888909    7893.5018    -5825.299          0.5         0.55       0.3025   -1230.6399    7893.5018 
  560400    51006.178    200.12445    2891.3361    2442.8025    2752.5843    5195.3868     7346.173   -1273.3475   -41.888909    7910.3999   -5823.9742          0.5         0.55       0.3025   -1231.4585    7910.3999 
  560600    51006.178    200.69982    2663.3078    2449.8257     2701.003    5150.8288     7131.991   -1268.6776   -41.888909    7902.6708   -5825.3456          0.5         0.55       0.3025   -1226.7887    7902.6708 
  560800    51006.178    199.63941    2148.4939    2436.8819    2749.7815    5186.6635    6784.8696   -1276.2517   -41.888909     7912.078   -5825.5572          0.5         0.55       0.3025   -1234.3628     7912.078 
  561000    51006.178    199.68372    2295.4406    2437.4227     2744.306    5181.7287    6889.2445   -1283.9759   -41.888909    7907.1914   -5824.2457          0.5         0.55       0.3025    -1242.087    7907.1914 
  561200    51006.178    197.56166    2671.8877      2411.52    2696.9689    5108.4889    7096.0334   -1284.1854   -41.888909    7902.6338   -5822.6391          0.5         0.55       0.3025   -1242.2965    7902.6338 
  561400    51006.178    200.46339    1872.0546    2446.9397    2746.3716    5193.3113    6585.8817   -1281.6751   -41.888909    7904.0495   -5822.6323          0.5         0.55       0.3025   -1239.7862    7904.0495 
  561600    51006.178    200.33552    1546.3064    2445.3789    2746.2048    5191.5837    6341.8389   -1254.8521   -41.888909    7902.2535   -5824.9321          0.5         0.55       0.3025   -1212.9632    7902.2535 
  561800    51006.178    195.16634    1956.2663    2382.2817    2740.4534    5122.7351    6577.9484    -1269.164   -41.888909     7893.837   -5824.0255          0.5         0.55       0.3025   -1227.2751     7893.837 
  562000    51006.178    198.40263    2731.3108    2421.7852    2813.7459    5235.5311    7267.2789   -1273.9919   -41.888909    7910.1426   -5823.1471          0.5         0.55       0.3025    -1232.103    7910.1426 
  562200    51006.178    200.57027    2813.0902    2448.2444    2716.0331    5164.2775    7256.8587   -1285.6492   -41.888909    7914.8981   -5824.2791          0.5         0.55       0.3025   -1243.7603    7914.8981 
  562400    51006.178    198.81997    2800.6885    2426.8795    2720.2987    5147.1783    7230.5342   -1278.1706   -41.888909    7901.5139   -5823.7018          0.5         0.55       0.3025   -1236.2817    7901.5139 
  562600    51006.178    205.09346    3263.5817    2503.4564    2722.4497    5225.9061    7653.5958   -1292.3807   -41.888909    7906.5371   -5822.0573          0.5         0.55       0.3025   -1250.4918    7906.5371 
  562800    51006.178    196.99111    2972.9907    2404.5556    2729.0762    5133.6318    7345.1587   -1279.6543   -41.888909    7917.5531    -5822.335          0.5         0.55       0.3025   -1237.7654    7917.5531 
  563000    51006.178    199.73979    2025.4332    2438.1072    2736.8989    5175.0061    6681.6708   -1277.5087   -41.888909    7900.3657   -5823.7423          0.5         0.55       0.3025   -1235.6198    7900.3657 
  563200    51006.178    199.17571    1283.3719    2431.2218    2731.8388    5163.0606     6117.726   -1266.7233   -41.888909    7900.3772   -5823.7874          0.5         0.55       0.3025   -1224.8344    7900.3772 
  563400    51006.178    200.89653    1446.4756    2452.2269    2701.2004    5153.4273    6229.4211    -1284.641   -41.888909    7901.8653   -5824.8787          0.5         0.55       0.3025   -1242.7521    7901.8653 
  563600    51006.178    194.81921    1888.7632    2378.0446    2688.5839    5066.6284     6471.628   -1272.7972   -41.888909    7915.3535   -5822.7349          0.5         0.55       0.3025   -1230.9083    7915.3535 
  563800    51006.178    199.18712    2056.5593    2431.3611    2750.4689      5181.83    6711.6485   -1252.1767   -41.888909    7903.9123   -5822.3032          0.5         0.55       0.3025   -1210.2878    7903.9123 
  564000    51006.178    201.86217    2369.1358    2464.0139    2741.2453    5205.2592    6967.5948   -1276.3133   -41.888909    7888.5793   -5823.8043          0.5         0.55       0.3025   -1234.4244    7888.5793 
  564200    51006.178    199.08926    2275.6286    2430.1665    2681.6472    5111.8137    6804.5919   -1277.5153   -41.888909    7896.9748   -5823.1544          0.5         0.55       0.3025   -1235.6264    7896.9748 
  564400    51006.178    202.13469    2874.1336    2467.3404    2703.2238    5170.5642     7308.554   -1266.9496   -41.888909    7894.7947   -5821.8416          0.5         0.55       0.3025   -1225.0607    7894.7947 
  564600    51006.178    201.80949    2083.4878    2463.3708    2706.3679    5169.7388    6719.5887    -1276.185   -41.888909    7916.2902   -5823.6168          0.5         0.55       0.3025   -1234.2961    7916.2902 
  564800    51006.178    201.92685    1180.8553    2464.8033    2744.2966    5209.0999     6087.506   -1276.4088   -41.888909    7899.4537    -5821.326          0.5         0.55       0.3025   -1234.5199    7899.4537 
  565000    51006.178    202.45627    1962.8791    2471.2657    2706.5419    5177.8076      6637.94   -1272.4304   -41.888909    7911.3196   -5822.0618          0.5         0.55       0.3025   -1230.5415    7911.3196 
  565200    51006.178    200.83123    1702.3191    2451.4297    2690.6401    5142.0699    6408.3788   -1281.2334   -41.888909    7900.1936   -5823.0105          0.5         0.55       0.3025   -1239.3445    7900.1936 
  565400    51006.178    201.76424    1579.2921    2462.8185    2763.5343    5226.3528    6401.1452   -1256.2312   -41.888909    7900.9124   -5824.2805          0.5         0.55       0.3025   -1214.3423    7900.9124 
  565600    51006.178    206.02104    1544.5248    2514.7787    2805.6545    5320.4332    6469.3632   -1262.7359   -41.888909    7908.3402   -5821.4316          0.5         0.55       0.3025   -1220.8469    7908.3402 
  565800    51006.178    195.83458    1947.7061    2390.4386    2774.4514    5164.8899    6613.7354   -1277.7167   -41.888909    7904.9281   -5822.0789          0.5         0.55       0.3025   -1235.8278    7904.9281 
  566000    51006.178    198.56479    2713.3309    2423.7646    2717.3379    5141.1025    7159.4755   -1275.0715   -41.888909    7909.1221   -5820.9655          0.5         0.55       0.3025   -1233.1826    7909.1221 
  566200    51006.178    200.00495    2565.2707    2441.3439    2775.7274    5217.0713    7125.3064    -1272.572   -41.888909    7915.6248   -5821.0632          0.5         0.55       0.3025   -1230.6831    7915.6248 
  566400    51006.178    197.88734    2052.1611    2415.4955    2724.2128    5139.7083     6666.255   -1283.9766   -41.888909    7922.5102   -5820.4165          0.5         0.55       0.3025   -1242.0877    7922.5102 
  566600    51006.178    196.91193     1683.433    2403.5892    2674.5849    5078.1741    6330.4341   -1289.6165   -41.888909    7905.6849   -5823.7132          0.5         0.55       0.3025   -1247.7276    7905.6849 
  566800    51006.178    201.77337    2280.0798    2462.9299    2704.3772    5167.3071    6863.3964   -1278.5937   -41.888909     7896.594   -5824.0618          0.5         0.55       0.3025   -1236.7048     7896.594 
  567000    51006.178    198.65283    2321.3464    2424.8393    2728.1003    5152.9395     6879.726   -1278.6332   -41.888909    7911.8357   -5823.5868          0.5         0.55       0.3025   -1236.7442    7911.8357 
  567200    51006.178     198.6663    2520.3286    2425.0038     2713.798    5138.8018    7013.6056   -1267.2381   -41.888909    7908.4139    -5823.993          0.5         0.55       0.3025   -1225.3492    7908.4139 
  567400    51006.178    203.72791    2677.8152    2486.7878    2724.5855    5211.3734    7203.3272   -1273.4511   -41.888909    7906.4587   -5823.3783          0.5         0.55       0.3025   -1231.5622    7906.4587 
  567600    51006.178    198.78201    3073.9396    2426.4161    2703.7172    5130.1333    7416.7533   -1269.6115   -41.888909    7907.7246   -5824.0158          0.5         0.55       0.3025   -1227.7226    7907.7246 
  567800    51006.178    191.88591    2757.7511    2342.2394    2648.1757    4990.4151    7041.8312   -1282.7971   -41.888909    7905.8061   -5824.4665          0.5         0.55       0.3025   -1240.9082    7905.8061 
  568000    51006.178    198.71804    2589.0868    2425.6353    2679.0872    5104.7225    7030.6737    -1286.969   -41.888909    7911.7193   -5823.7636          0.5         0.55       0.3025   -1245.0801    7911.7193 
  568200    51006.178    200.95141    2730.0616    2452.8968     2749.176    5202.0728    7232.8913   -1265.6371   -41.888909    7916.7109   -5825.8396          0.5         0.55       0.3025   -1223.7482    7916.7109 
  568400    51006.178    197.16716     2204.347    2406.7046     2747.938    5154.6425    6794.3963   -1249.3627   -41.888909     7909.965   -5824.9995          0.5         0.55       0.3025   -1207.4738     7909.965 
[...]
 2484200    51006.178    197.06699    2343.9349    2405.4819    2761.3812    5166.8631    6910.4526   -1284.5112   -41.888909    7899.4829   -5823.6477          0.5         0.55       0.3025   -1242.6223    7899.4829 
 2484400    51006.178    199.99694     2765.923    2441.2461    2765.7695    5207.0156    7264.5104   -1257.3191   -41.888909    7904.5905   -5822.4933          0.5         0.55       0.3025   -1215.4302    7904.5905 
 2484600    51006.178    199.54891    2570.4124    2435.7772    2720.4215    5156.1987    7068.2585   -1267.9141   -41.888909    7913.4322   -5822.6023          0.5         0.55       0.3025   -1226.0251    7913.4322 
 2484800    51006.178    195.52111    2028.7152    2386.6123    2735.0962    5121.7085    6630.8145     -1271.94   -41.888909    7901.8683   -5821.7939          0.5         0.55       0.3025   -1230.0511    7901.8683 
 2485000    51006.178    206.06416    2011.8858    2515.3051    2707.2333    5222.5384    6719.1255   -1281.1117   -41.888909    7908.9127    -5824.787          0.5         0.55       0.3025   -1239.2227    7908.9127 
 2485200    51006.178    200.53157    2064.3202    2447.7721    2692.0233    5139.7954     6675.387   -1268.0599   -41.888909    7896.6464   -5825.3953          0.5         0.55       0.3025    -1226.171    7896.6464 
 2485400    51006.178    200.44866    2569.8006      2446.76    2712.8197    5159.5796    7071.1844   -1281.4467   -41.888909    7895.8347   -5824.4829          0.5         0.55       0.3025   -1239.5578    7895.8347 
 2485600    51006.178    198.13111    2064.6966    2418.4709    2763.1136    5181.5846    6717.4562   -1265.6177   -41.888909     7902.928   -5821.7229          0.5         0.55       0.3025   -1223.7288     7902.928 
 2485800    51006.178    200.44151    1183.9661    2446.6726    2730.7368    5177.4095    6058.1296   -1285.8364   -41.888909    7915.9387   -5819.9553          0.5         0.55       0.3025   -1243.9474    7915.9387 
 2486000    51006.178    194.95932     1350.821    2379.7547    2742.4964    5122.2512    6127.0901   -1268.0666   -41.888909     7907.758   -5822.8852          0.5         0.55       0.3025   -1226.1777     7907.758 
 2486200    51006.178    197.83657    2098.3886    2414.8757    2768.5689    5183.4446    6744.3787   -1269.2975   -41.888909    7902.4495   -5826.2787          0.5         0.55       0.3025   -1227.4086    7902.4495 
 2486400    51006.178    199.42269    2539.4781    2434.2365    2716.9759    5151.2124    7040.2611   -1272.3263   -41.888909    7896.8651   -5823.6414          0.5         0.55       0.3025   -1230.4374    7896.8651 
 2486600    51006.178    199.69324    2564.9254     2437.539    2664.8824    5102.4214    7010.3996   -1272.4921   -41.888909    7891.1893   -5825.1834          0.5         0.55       0.3025   -1230.6032    7891.1893 
 2486800    51006.178    203.86995    2623.8686    2488.5217    2687.5782    5176.0999    7127.9243     -1296.15   -41.888909    7909.4372   -5823.9499          0.5         0.55       0.3025   -1254.2611    7909.4372 
 2487000    51006.178    200.25406    2034.5621    2444.3845    2744.1308    5188.5154    6701.9708   -1273.2391   -41.888909    7897.9233   -5820.1836          0.5         0.55       0.3025   -1231.3501    7897.9233 
 2487200    51006.178    193.88841    1957.0024    2366.6828    2713.8009    5080.4838    6536.2446   -1279.0349   -41.888909    7901.7092   -5822.2259          0.5         0.55       0.3025   -1237.1459    7901.7092 
 2487400    51006.178    195.70524    2807.4187    2388.8598    2763.5269    5152.3867     7240.749   -1251.0198   -41.888909    7907.7687   -5823.2178          0.5         0.55       0.3025   -1209.1309    7907.7687 
 2487600    51006.178    199.74826    2736.8284    2438.2106    2754.8367    5193.0472    7228.8994   -1260.3181   -41.888909    7901.9242   -5822.9794          0.5         0.55       0.3025   -1218.4291    7901.9242 
 2487800    51006.178    193.80906    2966.6394    2365.7142    2712.5844    5078.2986    7285.1009   -1277.5746   -41.888909      7909.98    -5820.427          0.5         0.55       0.3025   -1235.6857      7909.98 
 2488000    51006.178    200.32398     2966.503     2445.238    2719.9969     5165.235    7371.9358    -1272.468   -41.888909    7904.2037   -5821.8631          0.5         0.55       0.3025   -1230.5791    7904.2037 
 2488200    51006.178    198.62276     2346.521    2424.4722    2762.6811    5187.1533    6932.6664   -1260.8798   -41.888909     7913.138   -5821.1239          0.5         0.55       0.3025   -1218.9909     7913.138 
 2488400    51006.178    199.98198    2384.0781    2441.0634    2730.4398    5171.5032     6944.954   -1281.8218   -41.888909    7911.3189   -5820.5947          0.5         0.55       0.3025   -1239.9329    7911.3189 
 2488600    51006.178    202.20239    3024.7452    2468.1667    2704.2652    5172.4319    7422.4576   -1285.3044   -41.888909    7922.1503   -5821.9014          0.5         0.55       0.3025   -1243.4155    7922.1503 
 2488800    51006.178    198.23515    3089.4717    2419.7409    2779.5246    5199.2655    7497.4394   -1268.6056   -41.888909     7921.125   -5821.5181          0.5         0.55       0.3025   -1226.7167     7921.125 
 2489000    51006.178    200.76058    2094.6498    2450.5674    2706.5609    5157.1283    6715.2812    -1273.799   -41.888909    7910.9029   -5823.0931          0.5         0.55       0.3025   -1231.9101    7910.9029 
 2489200    51006.178    202.22199    2227.5684     2468.406    2748.9388    5217.3448    6874.3723     -1278.49   -41.888909     7914.948   -5822.7423          0.5         0.55       0.3025   -1236.6011     7914.948 
 2489400    51006.178    199.40523    2475.0643    2434.0234    2745.5817    5179.6051    7020.7381   -1269.1667   -41.888909    7914.1766   -5826.2904          0.5         0.55       0.3025   -1227.2778    7914.1766 
 2489600    51006.178    198.97845    2296.4341     2428.814    2705.7911    5134.6051    6842.8599   -1285.9199   -41.888909    7904.7158    -5824.279          0.5         0.55       0.3025    -1244.031    7904.7158 
 2489800    51006.178    201.64815    1973.0911    2461.4014    2755.7567    5217.1581    6684.8869   -1277.3581   -41.888909    7909.2505   -5823.3821          0.5         0.55       0.3025   -1235.4692    7909.2505 
 2490000    51006.178    200.45141    1765.3531    2446.7935    2774.6041    5221.3975    6534.5956   -1257.3515   -41.888909    7915.5317   -5819.0875          0.5         0.55       0.3025   -1215.4626    7915.5317 
 2490200    51006.178    198.81163    1632.9313    2426.7777    2726.7673     5153.545    6368.2382    -1289.499   -41.888909    7908.7918   -5818.7633          0.5         0.55       0.3025     -1247.61    7908.7918 
 2490400    51006.178    200.45565     2426.858    2446.8453    2795.0297    5241.8749    7047.1485   -1253.8335   -41.888909    7912.9212   -5819.3552          0.5         0.55       0.3025   -1211.9446    7912.9212 
 2490600    51006.178    201.06953    2586.8638    2454.3385    2773.9777    5228.3163    7152.6139   -1254.7257   -41.888909    7902.0212   -5823.0539          0.5         0.55       0.3025   -1212.8368    7902.0212 
 2490800    51006.178       199.82    1820.3965    2439.0863    2724.2303    5163.3166    6517.4601   -1266.0055   -41.888909    7908.4714   -5822.6868          0.5         0.55       0.3025   -1224.1165    7908.4714 
 2491000    51006.178    200.86696    1808.8227    2451.8658    2717.5719    5169.4377    6514.9717   -1278.1388   -41.888909    7904.8046   -5821.6203          0.5         0.55       0.3025   -1236.2499    7904.8046 
 2491200    51006.178     201.2491    2655.2845    2456.5304    2774.4645     5230.995    7206.1889   -1249.1372   -41.888909    7924.3525   -5819.9796          0.5         0.55       0.3025   -1207.2483    7924.3525 
 2491400    51006.178    194.19606    2988.2242    2370.4381    2752.0921    5122.5302    7345.3889   -1294.7946   -41.888909    7915.2048   -5821.6488          0.5         0.55       0.3025   -1252.9057    7915.2048 
 2491600    51006.178    196.87392    2395.0711    2403.1252     2764.729    5167.8542    6949.4824   -1277.5806   -41.888909    7909.0421   -5819.4819          0.5         0.55       0.3025   -1235.6917    7909.0421 
 2491800    51006.178    201.42565    1437.6391    2458.6855     2732.748    5191.4335    6260.8541   -1283.3423   -41.888909    7893.8596   -5822.1194          0.5         0.55       0.3025   -1241.4534    7893.8596 
 2492000    51006.178    199.84015    2313.2758    2439.3322    2681.1236    5120.4558    6841.2388   -1279.0528   -41.888909    7901.8673   -5824.2625          0.5         0.55       0.3025   -1237.1639    7901.8673 
 2492200    51006.178    192.69479    2266.7356     2352.113    2673.8375    5025.9506    6712.1135   -1299.9396   -41.888909    7903.9773   -5824.6496          0.5         0.55       0.3025   -1258.0506    7903.9773 
 2492400    51006.178    200.13241    2363.6341    2442.8997    2708.5633     5151.463     6909.706   -1277.2488   -41.888909    7897.1983   -5825.2514          0.5         0.55       0.3025   -1235.3598    7897.1983 
 2492600    51006.178    203.03737    2203.3786    2478.3589    2707.1743    5185.5331    6824.5665   -1273.6186   -41.888909    7892.3796   -5824.6417          0.5         0.55       0.3025   -1231.7297    7892.3796 
 2492800    51006.178    197.35538    2991.2341    2409.0021    2687.1389    5096.1409    7321.2386   -1263.9439   -41.888909    7898.0799   -5827.5093          0.5         0.55       0.3025    -1222.055    7898.0799 
 2493000    51006.178    196.55336    3233.8957    2399.2123    2789.1825    5188.3948    7594.0019   -1254.2523   -41.888909      7899.75   -5826.3707          0.5         0.55       0.3025   -1212.3634      7899.75 
 2493200    51006.178    202.16697    3052.6712    2467.7344    2701.4552    5169.1895    7439.9886   -1264.9289   -41.888909    7888.9576   -5824.9223          0.5         0.55       0.3025     -1223.04    7888.9576 
 2493400    51006.178    199.86836    1950.9274    2439.6765    2673.9211    5113.5976    6564.8394   -1274.0756   -41.888909    7893.1911   -5821.6859          0.5         0.55       0.3025   -1232.1867    7893.1911 
 2493600    51006.178    201.37033    1678.2073    2458.0103    2766.8864    5224.8966    6473.2694   -1253.0693   -41.888909    7895.7257   -5823.6343          0.5         0.55       0.3025   -1211.1804    7895.7257 
 2493800    51006.178    195.58277    1576.1755    2387.3648    2765.0518    5152.4167    6324.8907   -1260.5186   -41.888909    7896.6437   -5824.0444          0.5         0.55       0.3025   -1218.6297    7896.6437 
 2494000    51006.178    199.74738    1377.0865    2438.1998    2693.7835    5131.9833    6156.3604   -1269.1749   -41.888909    7895.8716   -5823.8495          0.5         0.55       0.3025    -1227.286    7895.8716 
 2494200    51006.178    205.00166    1598.8105    2502.3358    2740.2109    5242.5467    6431.8583   -1281.6501   -41.888909    7910.1462     -5823.11          0.5         0.55       0.3025   -1239.7611    7910.1462 
 2494400    51006.178    200.55967    2114.7995    2448.1149    2700.9442    5149.0591    6722.2009   -1275.0752   -41.888909    7901.9068   -5824.7598          0.5         0.55       0.3025   -1233.1863    7901.9068 
 2494600    51006.178    202.54035    3336.5552     2472.292    2746.5576    5218.8496    7700.8222   -1266.7163   -41.888909    7899.1794   -5824.7151          0.5         0.55       0.3025   -1224.8274    7899.1794 
 2494800    51006.178    203.73656    3578.4199    2486.8935    2720.7672    5207.6607    7869.5499   -1265.0663   -41.888909    7904.6771   -5823.1564          0.5         0.55       0.3025   -1223.1774    7904.6771 
 2495000    51006.178    197.85993    2888.5724    2415.1608    2745.5717    5160.7325     7309.463    -1253.901   -41.888909    7904.3351    -5823.072          0.5         0.55       0.3025   -1212.0121    7904.3351 
 2495200    51006.178    199.29532    2050.1515    2432.6818     2740.269    5172.9508    6698.0026     -1267.25   -41.888909     7899.117   -5822.4735          0.5         0.55       0.3025   -1225.3611     7899.117 
 2495400    51006.178    201.82634    2081.9008    2463.5764    2721.3695     5184.946    6733.6153   -1257.5055   -41.888909    7911.3787   -5821.4894          0.5         0.55       0.3025   -1215.6166    7911.3787 
 2495600    51006.178    196.69339    2215.5756    2400.9215    2765.8016    5166.7231    6814.8295   -1291.0794   -41.888909    7917.7271   -5823.7664          0.5         0.55       0.3025   -1249.1905    7917.7271 
 2495800    51006.178    197.90774    3027.7558    2415.7444    2691.7223    5107.4667    7359.7319   -1288.4982   -41.888909    7911.0405   -5825.0109          0.5         0.55       0.3025   -1246.6093    7911.0405 
 2496000    51006.178    202.97926    2577.2693    2477.6495    2695.2704    5172.9198    7090.0804   -1278.1665   -41.888909    7896.4726   -5825.8221          0.5         0.55       0.3025   -1236.2776    7896.4726 
 2496200    51006.178    199.74719    2440.8162    2438.1975    2709.5239    5147.7214    6963.3781   -1258.5442   -41.888909    7902.8165   -5826.8763          0.5         0.55       0.3025   -1216.6553    7902.8165 
 2496400    51006.178    198.67844    3279.8832    2425.1519    2685.7496    5110.9016    7550.7174   -1282.2728   -41.888909       7914.6   -5823.5502          0.5         0.55       0.3025   -1240.3839       7914.6 
 2496600    51006.178    202.12864    4140.2706    2467.2665    2727.1862    5194.4527    8274.2874   -1237.2294   -41.888909    7907.8341   -5825.4778          0.5         0.55       0.3025   -1195.3405    7907.8341 
 2496800    51006.178    200.26097    2621.9081    2444.4689    2733.3469    5177.8158    7128.1819   -1258.6973   -41.888909    7909.4232   -5822.3005          0.5         0.55       0.3025   -1216.8084    7909.4232 
 2497000    51006.178    196.66257    559.35932    2400.5453    2739.3193    5139.8646    5555.9568   -1274.9603   -41.888909    7908.2156   -5821.7606          0.5         0.55       0.3025   -1233.0714    7908.2156 
 2497200    51006.178    204.12234    1380.0073    2491.6024    2745.9323    5237.5347    6264.0845   -1267.7132   -41.888909    7914.2427   -5818.6455          0.5         0.55       0.3025   -1225.8243    7914.2427 
 2497400    51006.178    196.47283    2468.0775    2398.2293    2748.6143    5146.8436    6982.7793   -1275.3418   -41.888909    7916.0781   -5820.8963          0.5         0.55       0.3025   -1233.4529    7916.0781 
 2497600    51006.178    201.47002    2011.6428     2459.227    2710.8996    5170.1266     6666.533   -1253.0647   -41.888909    7904.8972   -5821.5553          0.5         0.55       0.3025   -1211.1758    7904.8972 
 2497800    51006.178    201.00615    1060.8152    2453.5649    2725.1802    5178.7451    5967.8567   -1270.3252   -41.888909    7904.1915   -5821.1294          0.5         0.55       0.3025   -1228.4363    7904.1915 
 2498000    51006.178    201.43706    2516.0352    2458.8248    2734.7717    5193.5965    7065.2066   -1253.1217   -41.888909    7905.9817   -5822.0389          0.5         0.55       0.3025   -1211.2328    7905.9817 
 2498200    51006.178    205.18231    3624.0769    2504.5409    2734.9867    5239.5275    7935.3797   -1265.5202   -41.888909    7909.7878   -5825.5929          0.5         0.55       0.3025   -1223.6313    7909.7878 
 2498400    51006.178    199.99314    3167.6106    2441.1997    2717.6493     5158.849    7515.1483   -1278.1958   -41.888909    7913.9103     -5825.29          0.5         0.55       0.3025   -1236.3069    7913.9103 
 2498600    51006.178    198.55367    1967.7173    2423.6289    2720.4873    5144.1162    6607.8476   -1261.7885   -41.888909    7890.9793   -5826.8043          0.5         0.55       0.3025   -1219.8996    7890.9793 
 2498800    51006.178    202.95585    1892.6585    2477.3638    2753.6143    5230.9781    6638.8752   -1281.4615   -41.888909    7901.8616   -5822.8493          0.5         0.55       0.3025   -1239.5726    7901.8616 
 2499000    51006.178    199.77587    1886.3381    2438.5476    2687.0318    5125.5793    6528.7749   -1289.7628   -41.888909    7897.8805   -5824.0925          0.5         0.55       0.3025   -1247.8739    7897.8805 
 2499200    51006.178    200.30506    2510.3811    2445.0072     2729.507    5174.5142    7041.9184   -1272.0205   -41.888909    7909.3088    -5824.362          0.5         0.55       0.3025   -1230.1316    7909.3088 
 2499400    51006.178    203.24707    2335.6358    2480.9185    2789.1565     5270.075    7007.4909   -1260.5999   -41.888909    7904.4895   -5825.4301          0.5         0.55       0.3025    -1218.711    7904.4895 
 2499600    51006.178    201.44098     2510.379    2458.8727      2737.28    5196.1527    7063.5553   -1278.0093   -41.888909    7907.9627   -5823.5394          0.5         0.55       0.3025   -1236.1204    7907.9627 
 2499800    51006.178    200.34988    2233.6601    2445.5542    2719.9438     5165.498     6827.057   -1277.8035   -41.888909    7896.4065   -5824.9932          0.5         0.55       0.3025   -1235.9146    7896.4065 
 2500000    51006.178    196.02838    1662.5613    2392.8042    2711.9253    5104.7295    6341.4636   -1267.0764   -41.888909    7899.9307   -5824.0773          0.5         0.55       0.3025   -1225.1875    7899.9307 
Loop time of 10946.7 on 24 procs for 2000000 steps with 4096 atoms

Performance: 15.786 ns/day, 1.520 hours/ns, 182.704 timesteps/s
95.5% CPU use with 24 MPI tasks x no OpenMP threads

MPI task timing breakdown:
Section |  min time  |  avg time  |  max time  |%varavg| %total
---------------------------------------------------------------
Pair    | 5912.2     | 6037.6     | 6182.8     |  97.7 | 55.15
Bond    | 80.261     | 82.577     | 85.942     |  17.9 |  0.75
Kspace  | 2985.4     | 3134.4     | 3263       | 133.4 | 28.63
Neigh   | 195.63     | 196.22     | 197.08     |   2.9 |  1.79
Comm    | 547.02     | 562.22     | 577.98     |  34.7 |  5.14
Output  | 1.1821     | 1.2618     | 2.8797     |  30.0 |  0.01
Modify  | 845.54     | 855.98     | 867.02     |  16.3 |  7.82
Other   |            | 76.43      |            |       |  0.70

Nlocal:        170.667 ave         188 max         154 min
Histogram: 1 2 2 2 6 3 4 2 0 2
Nghost:        5336.12 ave        5392 max        5296 min
Histogram: 3 3 2 6 0 2 4 3 0 1
Neighs:        78680.3 ave       88090 max       70259 min
Histogram: 1 2 2 3 6 4 3 1 1 1

Total # of neighbors = 1888328
Ave neighs/atom = 461.01758
Ave special neighs/atom = 6.0000000
Neighbor list builds = 47893
Dangerous builds = 0

write_data      data.${NAME}
write_data      data.ar
System init for write_data ...
PPPM initialization ...
  using 12-bit tables for long-range coulomb (../kspace.cpp:340)
  G vector (1/distance) = 0.2607326
  grid = 32 32 32
  stencil order = 5
  estimated absolute RMS force accuracy = 0.00041335133
  estimated relative force accuracy = 1.2447952e-06
  using double precision KISS FFT
  3d grid and FFT values/proc = 6210 2048
WARNING: Fix recenter should come after all other integration fixes (../fix_recenter.cpp:133)

write_restart   restart.${NAME}
write_restart   restart.ar
System init for write_restart ...
PPPM initialization ...
  using 12-bit tables for long-range coulomb (../kspace.cpp:340)
  G vector (1/distance) = 0.2607326
  grid = 32 32 32
  stencil order = 5
  estimated absolute RMS force accuracy = 0.00041335133
  estimated relative force accuracy = 1.2447952e-06
  using double precision KISS FFT
  3d grid and FFT values/proc = 6210 2048
WARNING: Fix recenter should come after all other integration fixes (../fix_recenter.cpp:133)






Total wall time: 3:02:29
