LAMMPS data file via write_data, version 29 Sep 2021, timestep = 2500000

4096 atoms
8 atom types
3584 bonds
6 bond types
4608 angles
8 angle types
4096 dihedrals
6 dihedral types
1536 impropers
3 improper types

0 30.167756 xlo xhi
0 38.212491 ylo yhi
0 44.2460419 zlo zhi
0 0 0 xy xz yz

Masses

1 12.01
2 12.01
3 12.01
4 16
5 1.008
6 1.008
7 0.001
8 0.001

Bond Coeffs # harmonic

1 343.1 1.088
2 547.3 1.346
3 342.5 1.088
4 354.5 1.482
5 310.7 1.112
6 637.7 1.218

Angle Coeffs # harmonic

1 49.6 119.94
2 65.5 120.42
3 38.1 116.9
4 49.5 120.45
5 46.7 114.89
6 68.8 123.2
7 46.5 116.46
8 54.2 120.7

Dihedral Coeffs # charmm

1 2.175 2 180 0
2 2.175 2 180 0
3 6.65 2 180 0
4 6.65 2 180 0
5 2.175 2 180 0
6 2.175 2 180 0

Improper Coeffs # cvff

1 10.5 -1 2
2 1.1 -1 2
3 1.1 -1 2

Atoms # full

3543 443 6 0.19089 2.9945582177626866 6.863611996579968 6.494173682767848 -4 0 2
3351 419 6 0.19089 7.844072268190073 8.919373408029262 4.863410473323382 5 1 2
2115 265 3 0.512161 4.394195003945299 4.409974369466292 6.509271868349297 -2 -2 2
1706 214 2 -0.169515 14.083402523733376 8.313746416044774 2.4939542383114746 1 3 -1
2654 332 6 0.19089 14.142887405026148 2.200175610419985 7.293397185948023 -2 -5 -2
781 98 5 -0.008385 9.075333363029976 11.788942347731403 2.5572241802427036 0 -1 -1
2650 332 2 -0.169515 12.178753309286405 1.8957395865722682 6.635329286267378 -2 -5 -2
779 98 3 0.512161 9.38652541071791 12.502161705869396 3.3312137100788948 0 -1 -1
3367 421 6 0.19089 1.1262758307426823 1.897088231334501 8.05894420107821 4 -4 -2
3254 407 6 0.19089 7.874967687041383 7.645873311101413 2.809115748579952 2 1 3
771 97 3 0.512161 9.326010545387726 1.2216949877578076 10.4874325020042 -1 -2 -1
3640 455 6 0.1559 9.701667944912053 9.531520457584117 0.22205396844058536 5 0 2
2116 265 4 -0.488411 3.3162967569840593 4.186416591446987 5.983658188342315 -2 -2 2
114 15 2 -0.169515 10.033303636621893 3.7030846943849998 1.0819831795787613 -1 4 -2
399 50 6 0.19089 13.940619986260819 7.16040577596757 5.600603624100233 5 4 -1
1104 138 6 0.1559 1.6094549596637358 12.466959030401112 3.3596991670272542 1 1 1
2189 274 5 -0.008385 6.804036111092693 0.4951967634632823 0.6647684098710271 1 0 1
3249 407 1 -0.38353 7.874391463610161 6.652095405657928 3.1676722745881634 2 1 3
396 50 4 -0.488411 10.863519263694393 5.108269037092135 8.185149327297275 5 4 -1
2118 265 6 0.19089 6.937363796389313 5.018353099872669 7.313282320459804 -2 -2 2
612 77 4 -0.488411 3.5552691631011446 0.29483820942270555 2.962256827597208 0 0 2
765 96 5 -0.008385 7.809599523592641 11.131236328468168 8.552018768055577 3 1 0
1747 219 3 0.512161 13.191314510458348 12.48463418379278 7.997078162576329 -2 0 -3
707 89 3 0.512161 4.576671445222974 0.5538544475925776 7.295811685172254 3 1 3
2119 265 6 0.19089 7.331798464756217 6.287810184158842 6.053231966505846 -2 -2 2
2061 258 5 -0.008385 5.75022224371742 1.9836836518087981 4.270653881187363 3 4 -1
4022 503 6 0.19089 1.3078702621940461 11.377318165679771 5.0106587299557575 4 4 3
118 15 6 0.19089 11.988298437569648 3.047103764386684 0.48018990569874076 -1 4 -2
2564 321 4 -0.488411 0.7817182499930297 6.0742475902888735 8.35310767826433 0 3 0
2656 332 6 0.1559 11.180999634943115 1.6749080631659927 6.94251164013983 -2 -5 -2
3544 443 6 0.1559 1.0798080144665831 6.544062684414801 5.065256688483759 -4 0 2
3361 421 1 -0.38353 0.08022911679262938 1.943016186481551 8.326141677169701 4 -4 -2
2215 277 6 0.19089 4.6708147933691215 10.628996816335688 7.087969212807217 0 0 0
1098 138 2 -0.169515 1.456973103475506 12.58372499140983 2.291458935361854 1 1 1
3380 423 4 -0.488411 12.562094011116624 12.227912796404206 2.885498124352997 -1 0 1
2344 293 6 0.1559 6.263423778132256 6.2488728640416324 0.42561200674316046 -1 5 3
2063 258 6 0.19089 8.99744367132461 0.5221405775437913 5.672683991872708 3 4 -1
3347 419 3 0.512161 4.9959404269643235 10.652598688585403 4.040416329304376 5 1 2
3537 443 1 -0.38353 2.998399725224822 7.314554937105336 5.503698692261077 -4 0 2
2113 265 1 -0.38353 6.6024580099424135 5.525440012230652 6.474353059633604 -2 -2 2
3865 484 1 -0.38353 3.5424600108680844 3.529631245177825 2.265704023833351 3 3 0
3253 407 5 -0.008385 10.350299130337376 7.736400393821792 2.4998285852233795 2 1 3
461 58 5 -0.008385 3.9246899049222943 1.9152940168704249 10.728741267556929 -2 1 -3
2651 332 3 0.512161 12.33023602105505 2.1817492129507072 5.180544853673525 -2 -5 -2
2187 274 3 0.512161 7.4382528611317875 1.1148779607796229 0.03026693858209289 1 0 1
1712 214 6 0.1559 13.955501143483625 8.776756101359302 3.4449557621894917 1 3 -1
2057 258 1 -0.38353 8.046472190275411 0.9723127392328543 5.331696118368059 3 4 -1
2114 265 2 -0.169515 5.394932363210243 5.261973264572626 5.904444565019821 -2 -2 2
3425 429 1 -0.38353 14.951321520734764 4.464216948966597 3.9973763095772417 0 1 2
711 89 6 0.19089 1.627239953797319 0.11734629119030632 5.488902209260098 3 1 3
2120 265 6 0.1559 5.059742270650149 5.814903715754316 5.053598543042851 -2 -2 2
778 98 2 -0.169515 10.086348561871278 11.757883099479981 4.4607987753595 0 -1 -1
4018 503 2 -0.169515 1.1342922789009058 9.936156232627473 6.650025501890161 4 4 3
3349 419 5 -0.008385 5.318319438145738 11.686429861776356 4.390181490652471 5 1 2
1366 171 6 0.19089 1.460772768699322 6.007012719576672 0.5043556729529975 2 2 2
663 83 6 0.19089 4.768189752852082 11.022145638839246 0.7576657887592743 2 4 -2
1103 138 6 0.19089 1.8524064856568416 10.567108424671249 1.9124373868191389 1 1 1
763 96 3 0.512161 8.901278020670306 11.41397666179482 8.411919314909015 3 1 0
2060 258 4 -0.488411 6.694362480030872 2.939109887639556 2.8070715171752756 3 4 -1
2185 274 1 -0.38353 9.440640644432115 0.2550779349747106 1.2099969097160916 1 0 1
777 98 1 -0.38353 10.381524033639002 10.431756508713827 4.386748980080834 0 -1 -1
4024 503 6 0.1559 0.8807287669762206 8.83560014054514 6.801602667574587 4 4 3
113 15 1 -0.38353 11.174721659234235 2.9756940690389864 1.1624240812655557 -1 4 -2
400 50 6 0.1559 13.324307598534629 5.973966238128277 7.707629543046516 5 4 -1
120 15 6 0.1559 9.26335880116815 3.6034683003121204 1.798860575104493 -1 4 -2
769 97 1 -0.38353 9.154615495720693 2.4273344340219265 8.360688707641792 -1 -2 -1
159 20 6 0.19089 14.498220053658063 6.548962276750623 9.64453377533385 -2 -1 2
774 97 6 0.19089 9.875563860781014 3.1465968669239412 8.812695003376321 -1 -2 -1
154 20 2 -0.169515 14.000743545453933 4.536504311272057 10.241690906750815 -2 -1 2
706 89 2 -0.169515 3.464237538490199 0.6614007385433328 6.323894040239725 3 1 3
784 98 6 0.1559 10.277284342884444 12.28716629330106 5.417631534944504 0 -1 -1
3348 419 4 -0.488411 3.864055501281064 10.468621706788156 3.5686136056704876 5 1 2
3507 439 3 0.512161 9.325945224980321 6.714809248911198 10.168822168880824 -2 0 -3
2211 277 3 0.512161 5.395465626141255 8.17932827255708 9.514244722789659 0 0 0
2117 265 5 -0.008385 4.7004124914549745 3.8990645406813744 7.428047932287074 -2 -2 2
2216 277 6 0.1559 4.695802767407852 8.207768605377085 7.45275161299165 0 0 0
3872 484 6 0.1559 2.014301508839651 3.5757965858705942 0.8536076360255107 3 3 0
1102 138 6 0.19089 1.5691038012559222 11.686379437357843 0.4103603383954474 1 1 1
2062 258 6 0.19089 7.169087456071604 0.8837906135705941 5.962292427945821 3 4 -1
1751 219 6 0.19089 13.221718120661958 9.566466281936142 6.060834846608576 -2 0 -3
657 83 1 -0.38353 4.816992998736327 12.119331005514292 0.7191932637595595 2 4 -2
3345 419 1 -0.38353 7.207410535755805 9.726570055994607 4.7211937893954525 5 1 2
2655 332 6 0.19089 13.021097795820308 1.7406887778495161 8.65219856029472 -2 -5 -2
776 97 6 0.1559 7.925864881572642 0.6947005365607863 8.777977664540058 -1 -2 -1
2565 321 5 -0.008385 2.6848706111884724 6.351231614029107 8.889225545330506 0 3 0
2058 258 2 -0.169515 7.958916890270725 1.5911205233291839 4.1709521017335005 3 4 -1
4023 503 6 0.19089 0.5376107702138779 9.75200086741451 4.623162729483077 4 4 3
2340 293 4 -0.488411 4.724346523688383 7.568357874861903 1.765304381883386 -1 5 3
2212 277 4 -0.488411 5.533363881155945 6.957782911514168 9.494789107628867 0 0 0
2210 277 2 -0.169515 4.981682697754089 8.886722690410148 8.287291797350191 0 0 0
119 15 6 0.19089 11.396380575415396 2.3934669381681832 2.0516089820253245 -1 4 -2
2653 332 5 -0.008385 13.324680104952376 2.502949532034608 4.910426375049727 -2 -5 -2
3869 484 5 -0.008385 1.5323838137194419 3.5177268920620652 3.9404511747412756 3 3 0
1750 219 6 0.19089 13.016879042584657 11.339048126609208 5.540334569477486 -2 0 -3
4020 503 4 -0.488411 1.9559874921051856 10.362110014001154 8.835861594914904 4 4 3
708 89 4 -0.488411 5.41456603315389 1.4351563335974993 7.5571230829888965 3 1 3
775 97 6 0.19089 8.809443169975934 2.6095988732103654 7.366765902944388 -1 -2 -1
1745 219 1 -0.38353 13.167588349827199 10.639637643845353 6.3509573583625585 -2 0 -3
153 20 1 -0.38353 13.94228002974277 5.868280635815934 10.332907295951964 -2 -1 2
3866 484 2 -0.169515 2.2187679134488394 3.48708899156441 1.8971266570489789 3 3 0
2339 293 3 0.512161 4.571160203204705 7.507127091320999 0.5388263615099014 -1 5 3
3508 439 4 -0.488411 8.750372136000555 7.2221877855086944 9.229941585606927 -2 0 -3
770 97 2 -0.169515 8.712595846510201 1.4421889938228147 9.102631136039927 -1 -2 -1
1746 219 2 -0.169515 13.248513952666597 11.083798164260118 7.606732695414014 -2 0 -3
3538 443 2 -0.169515 1.9027734469175424 7.144015775702456 4.7619546110051205 -4 0 2
3542 443 6 0.19089 3.7335011559617857 8.02649931720425 5.249368755891479 -4 0 2
1097 138 1 -0.38353 1.6272202848564512 11.531717446921906 1.4768491984237115 1 1 1
3509 439 5 -0.008385 10.334301359215958 7.194068886113173 10.501756576383308 -2 0 -3
398 50 6 0.19089 12.117244197101503 7.123869848754331 5.110261966850642 5 4 -1
2209 277 1 -0.38353 4.919826029706444 10.19993846339923 8.07220798971894 0 0 0
395 50 3 0.512161 11.19161890853661 5.881188606197803 7.294072593149548 5 4 -1
2214 277 6 0.19089 5.331938022440801 10.834480478411061 8.846053736537407 0 0 0
1707 214 3 0.512161 13.166288953356286 8.785554556760518 1.463716791763135 1 3 -1
3432 429 6 0.1559 14.392585043270612 2.7520910516546238 2.951179577048669 0 1 2
397 50 5 -0.008385 10.461901170963452 6.378305733425794 6.612660784292488 5 4 -1
3352 419 6 0.1559 5.632737795380164 8.61046786635216 3.7198929830262872 5 1 2
3278 410 6 0.19089 14.862870995419762 0.7383332576700841 1.0805899230895302 1 2 0
4021 503 5 -0.008385 1.7084762861208804 11.863347501368413 7.4784704018663515 4 4 3
3870 484 6 0.19089 3.797883850006181 3.5720606188734263 3.33084746843565 3 3 0
764 96 4 -0.488411 9.594790959020278 10.934142965014367 7.524039657018566 3 1 0
3256 407 6 0.1559 9.22117345330642 5.1016462402553096 3.7341282210919 2 1 3
1709 214 5 -0.008385 13.533773171510079 8.530443239215412 0.4048573133393627 1 3 -1
2213 277 5 -0.008385 5.655001073645495 8.794960545618059 10.42392561704253 0 0 0
783 98 6 0.19089 10.846084577530997 9.957183313228311 5.257331744179411 0 -1 -1
3251 407 3 0.512161 10.368613317032928 6.684787237954699 2.887531494154665 2 1 3
3255 407 6 0.19089 6.921621866843176 6.2281518574619525 3.4672357981547073 2 1 3
4017 503 1 -0.38353 0.9468187614148944 10.410295679218526 5.387136285060864 4 4 3
3350 419 6 0.19089 7.555908644046577 10.69674108107188 5.0798981762375055 5 1 2
4019 503 3 0.512161 1.641575745861785 10.758796516967902 7.743186093316658 4 4 3
3540 443 4 -0.488411 0.7251929076068956 7.883900426725012 2.795999749401585 -4 0 2
2064 258 6 0.1559 8.944850418952871 1.7271519539889608 3.591359632263893 3 4 -1
2562 321 2 -0.169515 1.2400362307760417 7.478113961670454 10.200162578324273 0 3 0
2568 321 6 0.1559 0.15772840034404173 7.720963717416047 10.16406682246806 0 3 0
160 20 6 0.1559 14.416764672189009 4.103541498756874 9.41050684457752 -2 -1 2
2059 258 3 0.512161 6.712490331092087 2.2429288146400324 3.7735920109432226 3 4 -1
2652 332 4 -0.488411 11.356923108633136 2.2451274581909173 4.505158773045585 -2 -5 -2
2649 332 1 -0.38353 13.16174501505133 1.939656336334261 7.581422981024813 -2 -5 -2
3346 419 2 -0.169515 6.011312391536395 9.562061393820356 4.141283033563783 5 1 2
3252 407 4 -0.488411 11.382976935779602 6.032063846129162 2.982608872204062 2 1 3
712 89 6 0.1559 3.6913079865635607 1.492901428541414 5.646254989666446 3 1 3
782 98 6 0.19089 10.188354294043474 9.81019841911935 3.4847548774079242 0 -1 -1
664 83 6 0.1559 6.888481978143184 12.192469019671941 1.1547804046060741 2 4 -2
394 50 2 -0.169515 12.60578917737475 6.235708994798906 6.988246193453203 5 4 -1
3871 484 6 0.19089 4.294338206389923 3.551213921577607 1.4899335721006965 3 3 0
3539 443 3 0.512161 1.7336674301560504 7.862124577424121 3.483807092643918 -4 0 2
3867 484 3 0.512161 1.1570766091125668 3.6401609021936845 2.887428033903575 3 3 0
2186 274 2 -0.169515 8.909777264451906 1.0065808997682353 0.25798379964617263 1 0 1
393 50 1 -0.38353 12.923594129451322 6.8879898460813465 5.848327364422347 5 4 -1
3541 443 5 -0.008385 2.471618572987541 8.677050516774534 3.2895019702448463 -4 0 2
2563 321 3 0.512161 1.6107057010578119 6.6067542775026435 9.071549419166509 0 3 0
1752 219 6 0.1559 13.363644650548562 10.422649868848996 8.473069750571698 -2 0 -3
762 96 2 -0.169515 9.42944215632643 12.469958673126785 9.317978725545276 3 1 0
3250 407 2 -0.169515 9.12135641673337 6.0675770180686275 3.294759721916415 2 1 3
1708 214 4 -0.488411 12.092311590042884 9.403483358929531 1.6799458657009896 1 3 -1
1916 240 4 -0.488411 1.7812844905959915 3.430576759229057 10.722548340386313 1 -1 -2
773 97 5 -0.008385 10.13501392686774 1.953940782030943 10.772974146998578 -1 -2 -1
3431 429 6 0.19089 14.115156296882736 4.40337978025346 4.731931573181324 0 1 2
2191 274 6 0.19089 10.524759020917074 0.13699431077010044 1.2559911134333772 1 0 1
2302 288 6 0.19089 14.372803880057337 12.275816538096825 0.25537844383627656 -1 -3 -1
3512 439 6 0.1559 7.863461350517091 5.088919199223953 10.504309463991182 -2 0 -3
3506 439 2 -0.169515 8.850734930578199 5.465833902165088 10.810224787025058 -2 0 -3
2566 321 6 0.19089 3.2015536579442094 7.868469284629668 10.914148863496848 0 3 0
3273 410 1 -0.38353 14.047643847603991 0.7375560519308266 0.33941272494107894 1 2 0
662 83 6 0.19089 3.854837462196318 12.56411645438305 0.4925029524459442 2 4 -2
613 77 5 -0.008385 2.5474836089205235 0.04884561461723728 1.2083766569571348 0 0 2
1447 181 6 0.19089 12.226368379371936 10.41260337408216 10.975207328421671 2 2 1
462 58 6 0.19089 5.670299716112477 3.5907346615987468 11.042040524662672 -2 1 -3
2341 293 5 -0.008385 3.6161081961431982 7.847897728221049 0.06814700136065427 -1 5 3
2167 271 6 0.19089 1.157916696060218 2.229491980320982 16.539377351971396 -1 -2 0
1489 187 1 -0.38353 4.413523386405027 10.707539159981092 14.402201255279564 -6 -3 -1
966 121 6 0.19089 3.4040207051054847 2.2630544072321546 16.761781499508558 -2 0 3
1836 230 4 -0.488411 10.553742734599187 4.628814178995157 15.140386342172382 4 5 1
581 73 5 -0.008385 12.342346776294962 9.346433895306113 14.526322828238595 -7 -3 3
1845 231 5 -0.008385 4.670172562756743 1.143128888891565 21.43213549890594 3 4 4
1844 231 4 -0.488411 2.7217260449601253 1.2029242736499037 21.02660779017999 3 4 4
2220 278 4 -0.488411 2.9707862075584286 5.147397898838638 17.97710127028242 2 -2 3
1495 187 6 0.19089 3.631132767774116 10.285672466377335 14.986552679706712 -6 -3 -1
1469 184 5 -0.008385 10.293095626931237 3.748209263419184 18.835400546884937 -3 1 1
3244 406 4 -0.488411 7.952705944442827 12.582912456648224 21.170467404389353 3 -5 0
459 58 3 0.512161 4.575301859392134 1.1389918190770802 11.202608291808966 -2 1 -3
3979 498 3 0.512161 4.845831961710701 9.064297636603216 18.445058654984063 -3 5 -4
2217 278 1 -0.38353 5.34360903308987 4.068496690778661 20.42360855259083 2 -2 3
3522 441 2 -0.169515 14.33848147363204 11.612471550129412 13.517810714549016 -1 -1 5
2221 278 5 -0.008385 3.1361539759403674 3.5236798032691024 19.10955141660947 2 -2 3
2168 271 6 0.1559 0.12395884404681645 3.3342051604266123 18.483121966808095 -1 -2 0
962 121 2 -0.169515 4.930266346697833 2.4970453372834753 15.364824090063035 -2 0 3
3505 439 1 -0.38353 9.501902729118857 4.855225177182715 11.854402656241572 -2 0 -3
3406 426 6 0.19089 12.674355059456575 9.92765180665224 21.130906468366554 3 4 0
3978 498 2 -0.169515 3.66714467526319 9.720293810011121 18.978994889443268 -3 5 -4
579 73 3 0.512161 12.38166199019144 8.250628439030333 14.312921500205288 -7 -3 3
802 101 2 -0.169515 9.993041273728352 11.526532472931708 16.64852783877828 4 5 1
2224 278 6 0.1559 5.383111067480284 5.78148545236125 19.243765779620546 2 -2 3
583 73 6 0.19089 13.161839356785377 6.803954036418447 17.358985596652694 -7 -3 3
1583 198 6 0.19089 5.944856139422668 8.801869730640076 13.023205113200536 3 5 -3
1446 181 6 0.19089 11.849208204330901 12.274773675373734 11.383371879277552 2 2 1
1833 230 1 -0.38353 7.446377540141977 5.7313032191502575 16.609330730611543 4 5 1
1491 187 3 0.512161 5.4867573756544115 11.386178712404178 12.340364759681533 -6 -3 -1
804 101 4 -0.488411 7.704930798577789 11.769333316697736 17.13970497468571 4 5 1
3243 406 3 0.512161 7.379944248714375 11.554756574071035 21.52540708836118 3 -5 0
1582 198 6 0.19089 7.1963113710139925 7.627944242752094 12.539027572404034 3 5 -3
577 73 1 -0.38353 13.019174647692907 7.616930971236581 16.604691787966058 -7 -3 3
3402 426 2 -0.169515 11.488066962406236 8.494333068297287 20.13771602092435 3 4 0
1134 142 6 0.19089 14.073324475561177 1.83728621865932 17.176635707000766 -2 -1 2
2283 286 3 0.512161 4.4589969829203335 6.588655008492475 14.753710755092381 -3 0 -1
1465 184 1 -0.38353 9.276906619449527 2.2209600721089 17.082298882253447 -3 1 1
2282 286 2 -0.169515 3.099168323574953 6.970484083726881 14.355629257619887 -3 0 -1
580 73 4 -0.488411 12.178121144725713 7.793808006257304 13.23345027867256 -7 -3 3
1843 231 3 0.512161 3.8409971059502785 0.9604500885908466 20.712114158034925 3 4 4
3404 426 4 -0.488411 11.669464839154195 6.127049889143061 20.541987614361524 3 4 0
3407 426 6 0.19089 11.483489570405991 10.52557832056442 19.852990142079097 3 4 0
1442 181 2 -0.169515 10.761614429053523 10.805810001784998 12.467218714084092 2 2 1
2627 329 3 0.512161 14.687412030897173 12.030494294796044 18.3054920794674 0 3 -1
3472 434 6 0.1559 12.598819815698528 2.9459583521912602 20.168261075771934 3 -2 2
801 101 1 -0.38353 11.095225753872977 12.053751977285147 16.041536332738936 4 5 1
3528 441 6 0.1559 13.39971988641004 12.19167641944926 13.673747820266808 -1 -1 5
1579 198 3 0.512161 8.946385078477828 8.156320799641497 14.633642865523935 3 5 -3
3248 406 6 0.1559 7.954068941212127 10.304871489351456 19.866207611163087 3 -5 0
1913 240 1 -0.38353 0.9025125283110115 4.523316528363918 14.051900446040067 1 -1 -2
2636 330 4 -0.488411 5.759261850890856 6.687751884937671 21.77973279185109 0 6 -1
3241 406 1 -0.38353 6.738224856595203 9.231343913973587 21.200315217351072 3 -5 0
1443 181 3 0.512161 9.942754275086852 11.827280621594173 13.175946288889778 2 2 1
1915 240 3 0.512161 1.080630750321465 3.755372330858439 11.698837008278096 1 -1 -2
3470 434 6 0.19089 14.75873185987448 4.7079187795396145 21.364027673046046 3 -2 2
1136 142 6 0.1559 14.259235479818198 1.4019349866620003 14.155016310159521 -2 -1 2
961 121 1 -0.38353 3.8881992618204495 2.913169844316612 16.035713968132526 -2 0 3
1130 142 2 -0.169515 14.363069416268528 1.886221799668233 15.120547364318968 -2 -1 2
3466 434 2 -0.169515 13.364580232521567 3.72148442087634 20.163394205741973 3 -2 2
1493 187 5 -0.008385 6.425788017861147 11.449920452674899 12.910731062680382 -6 -3 -1
3981 498 5 -0.008385 5.812385910022904 9.60450405861029 18.56277421681369 -3 5 -4
578 73 2 -0.169515 12.655851205829107 7.30645154796061 15.364772845607092 -7 -3 3
157 20 5 -0.008385 13.175596745248745 4.0776994574569985 12.223801327607358 -2 -1 2
3403 426 3 0.512161 12.051733441554335 7.250892960518786 20.775699199027443 3 4 0
1839 230 6 0.19089 6.361580495739753 5.663089293928005 16.459130611176146 4 5 1
3242 406 2 -0.169515 7.401062889659242 10.279800926779624 20.743505391855813 3 -5 0
1920 240 6 0.1559 2.7617786530961417 4.146611396038074 13.083251652038696 1 -1 -2
1471 184 6 0.19089 8.691955572105128 1.704138397078527 16.314944224037877 -3 1 1
968 121 6 0.1559 5.470269317031148 3.1628398242103613 14.757449514585653 -2 0 3
953 120 1 -0.38353 0.967589971975879 10.645057292528675 16.566303744429785 4 1 4
1466 184 2 -0.169515 8.77226530774585 2.3813598429880027 18.318986109696624 -3 1 1
1578 198 2 -0.169515 7.731826033761949 8.8447929295129 14.215800788007787 3 5 -3
1846 231 6 0.19089 6.248993519506038 0.2668856376846681 19.92482032259297 3 4 4
2555 320 3 0.512161 0.24797594526550298 7.308584342279655 18.995274117320875 3 1 1
958 120 6 0.19089 1.1883656387917272 11.622411656266076 17.135480197761733 4 1 4
1494 187 6 0.19089 5.330307177299928 10.978445787432516 14.901284904107131 -6 -3 -1
965 121 5 -0.008385 4.830243380640308 0.3970793216083242 15.969807694008429 -2 0 3
1441 181 1 -0.38353 11.697491196145924 11.17450391075422 11.553103826215576 2 2 1
457 58 1 -0.38353 6.249674411164114 2.870349444777774 11.516925953455113 -2 1 -3
963 121 3 0.512161 5.462780780678013 1.1333783820472114 15.44229235920421 -2 0 3
1842 231 2 -0.169515 4.224885310298869 0.3127910913523285 19.39775256567856 3 4 4
2222 278 6 0.19089 4.920773451066207 3.068649024696491 20.690627857424023 2 -2 3
1581 198 5 -0.008385 9.303413830673131 7.375413419015419 13.9128335738129 3 5 -3
2567 321 6 0.19089 1.8436589925158113 8.663340100070872 11.933888701170693 0 3 0
1840 230 6 0.1559 7.940771837008021 4.348800054952134 15.093931133450127 4 5 1
1041 131 1 -0.38353 10.480628630609566 1.635139627072908 14.042696561969588 -1 0 0
3247 406 6 0.19089 6.733239898915837 8.292827680827637 20.616243799903227 3 -5 0
3623 453 6 0.19089 8.260570534582612 0.423812823536981 21.945308813492563 4 2 -2
1468 184 4 -0.488411 9.190365681719156 3.355663698094243 20.472294358442824 -3 1 1
1584 198 6 0.1559 7.430077661171025 9.622534942717868 14.945007515908086 3 5 -3
2750 344 6 0.19089 1.7589619841182278 0.17316638431480527 12.222561374225837 3 1 1
2287 286 6 0.19089 1.5054214152094492 8.408748850731545 14.735093546766217 -3 0 -1
1133 142 5 -0.008385 14.983371001520327 3.7530965576661863 16.107964691018612 -2 -1 2
1496 187 6 0.1559 3.389635507624124 10.762380148932907 12.502458905689638 -6 -3 -1
1472 184 6 0.1559 7.7843718980699 1.9618226133444094 18.556351553892586 -3 1 1
1467 184 3 0.512161 9.470391659435249 3.221584271563565 19.294412471091622 -3 1 1
1914 240 2 -0.169515 1.6720680987510697 4.20060558771237 12.99266362094106 1 -1 -2
3401 426 1 -0.38353 11.875465143601511 9.723761906427656 20.465371020719324 3 4 0
2751 344 6 0.19089 1.8454980955130562 1.1722901559822718 13.820776213320666 3 1 1
3467 434 3 0.512161 13.609487594766712 4.311485488984674 18.81222860184886 3 -2 2
3408 426 6 0.1559 10.756585159443366 8.332887308313806 19.36502681113271 3 4 0
1838 230 6 0.19089 7.811566781111628 6.430389816955135 17.329976576173618 4 5 1
3469 434 5 -0.008385 14.345757483252306 5.11753815880801 18.75469699372987 3 -2 2
2561 321 1 -0.38353 2.107351582151315 8.06272018895185 11.074487949239815 0 3 0
3977 498 1 -0.38353 3.6405145122923863 11.010037637414824 19.377537592530327 -3 5 -4
3984 498 6 0.1559 2.7672725522567427 9.079147402238531 19.021970837157923 -3 5 -4
464 58 6 0.1559 6.549969170069871 0.8709366831584101 12.20529599610618 -2 1 -3
2218 278 2 -0.169515 4.817985403532021 4.8023648518697915 19.45305336272878 2 -2 3
807 101 6 0.19089 12.01491700232474 11.629277939013345 16.334928789958976 4 5 1
2286 286 6 0.19089 2.746646698475947 8.24323209046998 16.03601073485874 -3 0 -1
1577 198 1 -0.38353 6.962873198668325 8.43078005616827 13.173444173309287 3 5 -3
1047 131 6 0.19089 11.117933497228417 2.5208128251730337 14.119774184432805 -1 0 0
1046 131 6 0.19089 9.62084390451719 1.6307007998590088 13.326345681307266 -1 0 0
3980 498 4 -0.488411 4.845729036450499 7.884331147322022 18.17844396062772 -3 5 -4
1129 142 1 -0.38353 14.016833798167815 1.3120752859927645 16.256576373871038 -2 -1 2
463 58 6 0.19089 7.145159185478614 3.2794135200098644 11.978316460120901 -2 1 -3
3510 439 6 0.19089 10.484613612250243 5.211050426858705 12.175512653636108 -2 0 -3
3405 426 5 -0.008385 12.83218097315659 7.429860236640411 21.53450252788305 3 4 0
458 58 2 -0.169515 5.892856225671541 1.601110230245914 11.687453737451264 -2 1 -3
1490 187 2 -0.169515 4.330096722802505 10.895562692153893 13.063043417741694 -6 -3 -1
2558 320 6 0.19089 1.101831551064967 6.831761984030838 21.659388624850475 3 1 1
1492 187 4 -0.488411 5.441037128369966 11.749156587094168 11.185220266486088 -6 -3 -1
3983 498 6 0.19089 2.715660644985476 11.492571785580507 19.74128433243294 -3 5 -4
1835 230 3 0.512161 9.822879550727478 5.237449661553832 15.915274205214432 4 5 1
3468 434 4 -0.488411 12.957557187754858 4.027131427551264 17.80505687269198 3 -2 2
2219 278 3 0.512161 3.566989955998895 4.452309094552701 18.78796035019815 2 -2 3
2637 330 5 -0.008385 3.7302288243681314 6.51076704308477 21.699208290381414 0 6 -1
2554 320 2 -0.169515 0.4911189309670709 8.210974731285326 20.156278758876095 3 1 1
1837 230 5 -0.008385 10.275458126442508 5.8408210899938195 16.76983945624655 4 5 1
3188 399 4 -0.488411 1.149328530077106 4.265933581258457 20.91583479776801 3 1 3
803 101 3 0.512161 8.622622286613574 12.067772617509489 16.437822432499683 4 5 1
1664 208 6 0.1559 14.897254657111766 7.762330738701582 20.689322619367136 -2 0 -1
2285 286 5 -0.008385 4.923209147892517 7.297130567919465 15.46857761955562 -3 0 -1
1848 231 6 0.1559 3.4864597087871663 0.11936150613146015 18.640295177505894 3 4 4
2284 286 4 -0.488411 5.008911505805734 5.64012779628207 14.322416256847054 -3 0 -1
1580 198 4 -0.488411 9.567345620502717 8.495286534406805 15.61942278076411 3 5 -3
582 73 6 0.19089 13.090595148595087 8.631161574316158 16.987930684891143 -7 -3 3
772 97 4 -0.488411 9.008063950514101 0.3095339988572569 11.191257159503518 -1 -2 -1
967 121 6 0.19089 3.522075686156949 3.9552920803026206 16.003525188072796 -2 0 3
1135 142 6 0.19089 13.618849340546403 0.29812800679258245 16.188948481632494 -2 -1 2
155 20 3 0.512161 13.53623598363713 3.6065720841060687 11.278917128804784 -2 -1 2
584 73 6 0.1559 12.604957814409365 6.253789230192252 15.09515964541255 -7 -3 3
1834 230 2 -0.169515 8.32523916606199 5.082854210565983 15.807123161339256 4 5 1
2628 329 4 -0.488411 14.160957165117264 11.737848009328513 19.38439048886869 0 3 -1
2223 278 6 0.19089 6.31068613971858 4.3031451427852545 20.886693297581246 2 -2 3
959 120 6 0.19089 1.6361416827457114 9.808118951518988 16.764857576324843 4 1 4
808 101 6 0.1559 10.096845468365798 10.704196790290625 17.357422228810265 4 5 1
1048 131 6 0.1559 11.560073002410515 0.5677610944774696 15.496566130087793 -1 0 0
2281 286 1 -0.38353 2.387527595294057 7.866426962811265 15.130646900107784 -3 0 -1
2288 286 6 0.1559 2.7866661897215574 6.653172166957397 13.368324122265397 -3 0 -1
3511 439 6 0.19089 9.083861162106116 4.041841300529408 12.380587817417537 -2 0 -3
3982 498 6 0.19089 4.480108757446428 11.655761112758551 19.282811365635133 -3 5 -4
1470 184 6 0.19089 10.209862376950202 2.6700397261206374 16.750586138190904 -3 1 1
3187 399 3 0.512161 0.7018221206347338 3.5292246692443365 21.777434583763362 3 1 3
1487 186 6 0.19089 0.3995873022188528 12.478353361987653 12.509217411729555 0 4 1
1448 181 6 0.1559 10.517571088735634 9.772792633503721 12.621515406621537 2 2 1
3465 434 1 -0.38353 13.925225358342004 4.041881634395467 21.3323170310703 3 -2 2
2557 320 5 -0.008385 0.368462615844086 6.241151645210232 19.21735302686622 3 1 1
2553 320 1 -0.38353 0.8883893004328988 7.864518986622873 21.410558692019972 3 1 1
964 121 4 -0.488411 6.509527582292049 0.8342519369175144 14.96205302259286 -2 0 3
156 20 4 -0.488411 13.546303539765526 2.391347212501066 11.22597496740947 -2 -1 2
1042 131 2 -0.169515 10.767843984542484 0.5732736753786621 14.76577791640615 -1 0 0
1919 240 6 0.19089 1.366848214804433 4.640640043847957 15.06778256923306 1 -1 -2
2161 271 1 -0.38353 0.26943434383401854 1.819255983466026 17.01330976659982 -1 -2 0
3521 441 1 -0.38353 14.967101097873577 11.69576626391456 12.334430101909463 -1 -1 5
3524 441 4 -0.488411 14.270717482344889 10.846899678655411 15.740226256977461 -1 -1 5
158 20 6 0.19089 13.385892440076432 6.318391195526428 11.161426056971171 -2 -1 2
1444 181 4 -0.488411 8.94019450035573 11.525539844425884 13.82162842163678 2 2 1
3527 441 6 0.19089 14.632874659840878 12.317218791970422 11.456411595096041 -1 -1 5
3523 441 3 0.512161 14.898160695258936 10.903424536692564 14.658120092253107 -1 -1 5
1131 142 3 0.512161 14.899293618930809 3.273510962824158 15.088918253799028 -2 -1 2
2560 320 6 0.1559 0.3562791821603544 9.281269929746767 19.928378196635837 3 1 1
2745 344 1 -0.38353 1.2013587163896104 0.7412885647446309 12.999736900001407 3 1 1
2422 303 6 0.19089 9.378091426736212 5.622764404619758 21.974509198273193 -3 -2 -2
2295 287 6 0.19089 6.767931255023488 8.18408869283419 24.90559307582345 0 2 1
2419 303 3 0.512161 10.577287159704072 4.3596123322280445 24.05935543705486 -3 -2 -2
3620 453 4 -0.488411 7.838679880556291 0.2253327447648633 26.385568215163996 4 2 -2
1684 211 4 -0.488411 7.050150804264226 11.14874448077008 32.998039151642686 -3 1 -1
3851 482 3 0.512161 12.811970102042228 6.88912718227021 25.841040986799037 -1 2 -2
3171 397 3 0.512161 1.3059142480639154 3.637203223155792 31.352602106420967 -1 -2 -2
870 109 6 0.19089 6.0078942193618206 7.909006213226287 27.119258624250953 4 0 3
1990 249 6 0.19089 8.520982720222493 1.0137051352338033 29.608489730425706 0 -2 0
634 80 2 -0.169515 3.85106040501129 2.5355821663511655 24.122317594035884 -1 3 -3
3154 395 2 -0.169515 14.381154676052672 1.612675922563795 25.986383117852295 1 -2 0
2290 287 2 -0.169515 8.565320437062427 8.693553481939562 24.11055914910733 0 2 1
235 30 3 0.512161 5.46466538396576 1.9491441651263075 32.81414676818991 1 6 -2
865 109 1 -0.38353 5.055139811566382 8.449695961564464 26.964942749955927 4 0 3
1225 154 1 -0.38353 8.130696813066328 3.9381564415848946 28.11515574577324 -7 2 3