LAMMPS data file via write_data, version 29 Sep 2021, timestep = 3000000

6144 atoms
8 atom types
3584 bonds
6 bond types
4608 angles
8 angle types
4096 dihedrals
6 dihedral types
1536 impropers
3 improper types

0 29.0995366 xlo xhi
0 37.183529 ylo yhi
0 42.95514399 zlo zhi
-0.0100591125099978 -0.0617010042405149 0.0346948157243815 xy xz yz

Masses

1 12.01
2 12.01
3 12.01
4 16
5 1.008
6 1.008
7 0.001
8 0.001

Bond Coeffs # harmonic

1 343.1 1.088
2 547.3 1.346
3 342.5 1.088
4 354.5 1.482
5 310.7 1.112
6 637.7 1.218

Angle Coeffs # harmonic

1 49.6 119.94
2 65.5 120.42
3 38.1 116.9
4 49.5 120.45
5 46.7 114.89
6 68.8 123.2
7 46.5 116.46
8 54.2 120.7

Dihedral Coeffs # charmm

1 2.175 2 180 0
2 2.175 2 180 0
3 6.65 2 180 0
4 6.65 2 180 0
5 2.175 2 180 0
6 2.175 2 180 0

Improper Coeffs # cvff

1 10.5 -1 2
2 1.1 -1 2
3 1.1 -1 2

Atoms # full

2513 315 1 -0.38353 3.02955459195871 11.914908629353167 8.163987394809988 0 1 2
1436 180 4 -0.488411 0.4716124984589813 7.801308156127487 8.049690512619998 -1 -1 0
3942 493 6 0.19089 8.117742772237946 0.7563955032667066 4.836301584376766 2 2 0
2536 317 6 0.1559 5.876023282303647 8.488761727010223 5.751715269370816 2 -2 0
5659 0 8 0 13.120244983114251 2.540769328527662 9.294973662150591 0 0 0
6068 0 8 0 3.931109987327166 11.628623512825623 4.692986671635508 1 0 0
2249 282 1 -0.38353 11.64263048172616 10.311733028057809 3.557563234662959 0 2 2
1035 130 3 0.512161 13.221679808672413 7.805056217160355 6.966810737118361 1 0 0
6061 0 8 0 0.3136579881162217 11.681639512824889 3.851904671766675 1 0 0
5331 0 7 0 11.545123985738726 0.8327015127981346 2.9357176716546807 1 0 0
958 120 6 0.19089 7.555996050155703 0.4189468881582734 1.7467668012576594 5 0 2
3937 493 1 -0.38353 8.724534331105959 0.9262828704813435 5.718350301885205 2 2 0
5405 0 7 0 7.736315986500529 9.637514512818644 6.878359672167956 1 0 0
329 42 1 -0.38353 3.620626404496529 6.419367254562706 3.839494206409052 3 0 0
2470 309 6 0.19089 4.73349037616139 3.90816968383553 5.1309906096913345 1 2 2
1885 236 5 -0.008385 8.812024674107576 10.175084531147526 5.879446755352095 1 1 1
5686 0 8 0 2.2787759834556276 11.60983032855377 10.19101866211269 1 0 0
3938 493 2 -0.169515 10.055725782173905 1.161000822454536 5.608071619770751 2 2 0
2468 309 4 -0.488411 7.568456197116188 2.3717706971080963 2.7875894870885025 1 2 2
4160 0 7 0 2.1173139834864556 4.281832328531963 7.11722866220263 1 0 0
2137 268 1 -0.38353 2.9225428386089667 9.392767892800308 4.976660085910994 3 -1 0
6037 0 8 0 7.6504599865162355 2.3455445128021126 3.8689286717685785 1 0 0
2534 317 6 0.19089 5.771890292833558 6.142997078528544 7.649292084643402 2 -2 0
5393 0 7 0 7.695061986508339 9.010668512822548 1.494782672678487 1 0 1
609 77 1 -0.38353 12.947510120270083 1.201387764646144 7.151935971334584 0 1 2
1037 130 5 -0.008385 12.917991352453894 7.140826731292468 7.823759744658789 1 0 0
1345 169 1 -0.38353 4.9016050842936165 10.342263165117101 0.9577388529162052 -1 2 1
3044 381 4 -0.488411 3.310587041013492 1.952719119550557 1.7422507382503618 2 1 1
5326 0 7 0 9.456215986128557 6.351200512815655 3.6865416717498958 1 0 0
719 90 6 0.19089 4.2905335929316 1.1197107602685465 4.24211963608138 -1 1 3
1418 178 2 -0.169515 8.886614481946228 1.4560481705492623 10.37877000142548 -1 1 0
909 114 5 -0.008385 7.012352005324893 4.813419313211115 6.712338448333155 1 2 0
2677 335 5 -0.008385 0.19789359112177274 12.120909502827349 6.528434549762809 -1 -1 -1
3048 381 6 0.1559 0.982013264219764 2.1858716706628267 0.5202443475724806 2 1 1
1417 178 1 -0.38353 9.857332100918146 2.178708208239328 9.866907229604173 -1 1 0
3177 398 1 -0.38353 2.590846691585874 2.5505387326557343 7.880559430520538 2 1 -1
1438 180 6 0.19089 0.21178578593072384 4.664495804587539 5.761634803752744 -1 -1 0
5382 0 7 0 0.512582988076141 10.232348512823584 5.61358067211799 1 0 0
2936 367 6 0.1559 13.37271549198664 4.990053918948345 8.030641930757012 -2 0 1
5309 0 7 0 7.748832986494146 0.30832551279620546 6.750183672150221 1 0 0
5287 0 7 0 0.18446298815148882 2.0524115128006795 4.935978671738492 1 0 0
330 42 2 -0.169515 3.8092207564344718 6.876108688555464 2.598151091142278 3 0 0
1433 180 1 -0.38353 1.2276372350895473 5.039882583047817 5.787691648534757 -1 -1 0
5339 0 7 0 13.009575987384007 5.028335512811363 6.725435672147287 0 0 0
5330 0 7 0 11.4172189857365 0.40712751279717196 1.708212672695962 1 0 1
5311 0 7 0 7.595343986531835 1.8365665128000832 4.897915671731449 1 0 0
2250 282 2 -0.169515 12.922115823878372 10.723758344024008 3.670945396613956 0 2 2
4262 0 7 0 4.1176409830537 9.040635328542907 7.1511316622073 1 0 0
4264 0 7 0 3.8131139831235275 7.369653328537924 8.906975662076112 1 0 0
5426 0 7 0 11.30430298574222 9.69683551282132 1.844623672702723 1 0 1
720 90 6 0.1559 5.465508726558042 2.114581599916289 6.21491869622739 -1 1 3
2251 282 3 0.512161 13.404017923470347 12.09076526233388 3.3728153173325546 0 2 2
1036 130 4 -0.488411 14.015026491297006 8.71211193527432 7.072724832694203 1 0 0
5383 0 7 0 0.2861639881216396 11.221758512825154 4.907370671733185 1 0 0
141 18 5 -0.008385 8.492505072541068 4.6017045476321465 1.8193233357297942 2 0 1
1039 130 6 0.19089 11.136799032301331 6.352852291384613 4.492748085024149 1 0 0
1882 236 2 -0.169515 7.4005339895040585 9.902960245919479 4.240961470681983 1 1 1
1435 180 3 0.512161 0.2986214839332747 6.805569490469467 7.318800204396628 -1 -1 0
335 42 6 0.19089 4.393775698071919 6.597371117723344 4.61057704878129 3 0 0
3728 466 6 0.1559 14.332050230855799 6.004827058816834 3.3693202299560934 -1 0 0
4243 0 7 0 7.437555982325162 7.349192328537757 10.41220566216385 1 0 0
1434 180 2 -0.169515 1.3916708965553615 6.19593483442941 6.530341607627431 -1 -1 0
4004 501 4 -0.488411 12.137866220196187 7.149982977980989 2.4126309866113327 4 1 1
905 114 1 -0.38353 8.845425105277945 4.87093858990896 4.871862705120343 1 2 0
4185 0 7 0 9.338011981903412 3.7771133285311835 8.252690661951942 1 0 0
6044 0 8 0 11.28624998574278 2.397258512802989 4.617641671618034 1 0 0
736 92 6 0.1559 11.883756994778679 1.617135664711654 0.4357250887876424 2 -1 1
2465 309 1 -0.38353 4.4870451260448565 3.672281495275962 4.052940389647738 1 2 2
5406 0 7 0 7.8452939864673885 10.076605512819972 5.649657672121037 1 0 0
1881 236 1 -0.38353 8.260457135547071 9.153031155682758 3.552274643274061 1 1 1
5340 0 7 0 12.954289987396605 5.537022512807325 5.536741672108883 0 0 0
4287 0 7 0 11.24900298150898 8.133055328541865 8.27781466195678 1 0 0
2533 317 5 -0.008385 6.386867585287541 8.332146218088834 8.845066092528013 2 -2 0
1887 236 6 0.19089 7.979462614688266 8.73512996063844 2.58646594054317 1 1 1
5316 0 7 0 5.562792986972086 5.373801512808185 5.575843672113541 1 0 0
4161 0 7 0 1.9764279835205962 3.827129328530825 8.323719661965862 1 0 0
910 114 6 0.19089 7.804067416842976 5.09154287478815 4.651452241264189 1 2 0
5427 0 7 0 11.262320985747325 10.320693512824715 2.9426576716554798 1 0 0
4005 501 5 -0.008385 11.785078002361551 7.090849481646722 0.4858399890433216 4 1 1
3719 465 6 0.19089 5.8446489869806895 6.915761813663929 10.203020660659508 1 1 0
2141 268 5 -0.008385 1.453216023947113 9.265921761832454 2.9590849769055123 3 -1 0
5285 0 7 0 0.48888598808289757 0.38610951279752526 6.700119672143454 1 0 0
5328 0 7 0 12.969951987399615 3.980863512806434 0.15956567244610073 0 0 1
3043 381 3 0.512161 2.8242498813463475 1.0906474770463321 1.0424843366000591 2 1 1
5310 0 7 0 7.803346986481171 0.873861512797934 5.606622672115964 1 0 0
1350 169 6 0.19089 5.329397639925792 9.957472505658961 1.8958958598125653 -1 2 1
6034 0 8 0 2.243038987699413 7.005713512813215 4.733580671647642 1 0 0
5428 0 7 0 11.277275985746757 10.933021512822206 3.8906736717720714 1 0 0
4286 0 7 0 11.311074981494453 8.8714173285433 7.234357662220053 1 0 0
3178 398 2 -0.169515 3.2860881560462505 2.2404488519123924 8.99721554790784 2 1 -1
5688 0 8 0 3.977762983085925 6.966346328537258 10.007772662279674 1 0 0
4184 0 7 0 9.37465298189962 4.3170603285305225 7.086342662197517 1 0 0
1422 178 6 0.19089 9.712444582347162 3.2193213114583847 9.753591873682018 -1 1 0
5651 0 8 0 5.832544982678248 2.2255943285248523 9.17909766212586 1 0 0
3612 452 4 -0.488411 10.402160418535866 10.701314801452085 0.6072164390658685 1 2 2
3184 398 6 0.1559 4.231062786026352 2.6777461638317783 9.28414134610315 2 1 -1
906 114 2 -0.169515 9.082254897149348 4.393273126118086 6.090392435699315 1 2 0
4219 0 7 0 0.3057149838813258 7.53222432853869 10.332440662144537 1 0 0
1439 180 6 0.19089 2.097919858126047 4.568855523414177 5.353488042899296 -1 -1 0
3181 398 5 -0.008385 1.8332782618893657 0.6474034458266545 9.662844336991418 2 1 -1
614 77 6 0.19089 12.815280354694107 2.09183931148974 7.7746280478698635 0 1 2
3724 466 4 -0.488411 12.726702373618737 4.151569566399571 4.157606508375768 -1 0 0
2140 268 4 -0.488411 2.2021427503109994 10.825728608465983 1.8902043375904187 3 -1 0
5300 0 7 0 2.1568079877272295 5.057759512806009 1.7887266727027167 1 0 1
4273 0 7 0 13.310854983069373 11.91648632855055 10.368635662153457 0 0 0
715 90 3 0.512161 5.805375138058147 0.19907001185260262 7.185507742239697 -1 1 3
4263 0 7 0 4.300479983013132 8.587225328543129 8.372390661974919 1 0 0
3944 493 6 0.1559 10.70611956450394 1.4658804113058574 6.462613289666259 2 2 0
5381 0 7 0 0.47561698808701897 9.717461512825084 6.783535672154931 1 0 0
5691 0 8 0 13.173084983106513 11.477014328548012 9.281142662148564 0 0 0
4258 0 7 0 2.4048089834255775 11.962495328552981 9.072558662107204 1 0 0
334 42 6 0.19089 2.711391088690706 5.913830394801948 4.054680630492926 3 0 0
3038 380 6 0.19089 14.413087795641829 10.447153210758149 10.696093166463504 1 0 1
3182 398 6 0.19089 1.6581282291677093 2.006618072456684 7.612755967206739 2 1 -1
5694 0 8 0 9.543557981869649 11.69565432855095 10.074433662164795 1 0 0
2929 367 1 -0.38353 14.232498556912828 3.9876971125582905 9.628611531911107 -2 0 1
2934 367 6 0.19089 14.06227530999128 3.4801922900418436 10.578548628813964 -2 0 1
4007 501 6 0.19089 10.141621253919602 3.4782701380183108 0.4240328057467701 4 1 1
5341 0 7 0 13.243187987326847 6.620336512812058 4.940035671739482 0 0 0
4249 0 7 0 5.912216982660733 12.1495133285524 10.428606662167526 1 0 0
1034 130 2 -0.169515 12.56196596499392 7.505048044556528 5.655528964001276 1 0 0
139 18 3 0.512161 7.628372542971864 5.2893729585060445 1.5432410018874214 2 0 1
6042 0 8 0 9.489855986125246 6.960722512812921 4.657463671627158 1 0 0
2930 367 2 -0.169515 13.240658173641123 4.543868667896041 8.943516883230732 -2 0 1
6076 0 8 0 11.248140985754667 11.496268512827864 4.878472671727128 1 0 0
1033 130 1 -0.38353 11.561996592811626 6.590227489862062 5.514667515779931 1 0 0
1655 207 6 0.19089 3.3038502185123066 7.347092073134673 10.38675866793345 -1 1 1
5286 0 7 0 0.6334539880481851 0.7852425127979613 5.4517486720996615 1 0 0
4008 501 6 0.1559 10.778176959894065 4.766599516461668 2.3976225541571923 4 1 1
5308 0 7 0 3.8553459873478513 1.8414985128010872 3.510068671730621 1 0 0
2256 282 6 0.1559 13.736756996927152 10.015864691208025 3.9502561102535636 0 2 2
1886 236 6 0.19089 9.294307903924057 8.911943813339601 3.9161305592018185 1 1 1
5324 0 7 0 9.41044398613517 5.022629512808203 1.714441672700717 1 0 1
2933 367 5 -0.008385 11.720156016056439 4.392161194342816 10.518636416950995 -2 0 1
5696 0 8 0 11.272627981502755 6.9555813285377734 10.175064662108898 1 0 0
5302 0 7 0 2.2925419876887037 6.527498512810314 3.687100671749862 1 0 0
3684 461 4 -0.488411 10.353489827512297 11.382108154245417 6.744342382227556 -1 -2 3
2138 268 2 -0.169515 3.0677962125859475 10.254116157939372 3.9725630395795664 3 -1 0
5325 0 7 0 9.445348986129021 5.706873512809803 2.7885206716388082 1 0 0
2535 317 6 0.19089 5.5104676918806 6.132236215589746 5.878734785568272 2 -2 0
714 90 2 -0.169515 5.304834774707341 1.0579820689117756 6.1057605169701965 -1 1 3
2931 367 3 0.512161 11.912177427809912 4.691890394496535 9.497164707835974 -2 0 1
908 114 4 -0.488411 8.040300099683648 3.812187732508181 8.163407994658062 1 2 0
1550 194 6 0.19089 0.18150087972990045 7.299332955292214 2.044744573182972 1 0 0
2198 275 6 0.19089 7.324126767657587 9.956672007116955 10.345978072253168 3 -2 1
5332 0 7 0 11.17886798577333 2.0214335128017704 3.5101446717305067 1 0 0
2519 315 6 0.19089 4.122972171677602 11.729374104776884 7.995381427314506 0 1 2
1038 130 6 0.19089 11.399177533351734 5.844847473542032 6.289379658185676 1 0 0
5402 0 7 0 4.112826987295678 9.685214512820936 1.7484486726982633 1 0 1
5303 0 7 0 5.761153986933129 4.3557565128061615 1.4809986726764661 1 0 1
1440 180 6 0.1559 2.3748957841719407 6.655783837872862 6.589666683844315 -1 -1 0
5403 0 7 0 4.1536089872821504 10.168087512824343 2.944997671655789 1 0 0
1883 236 3 0.512161 7.789685103018478 10.529780329329864 5.4974229622836335 1 1 1
1884 236 4 -0.488411 7.222345966782498 11.466515822667413 6.024743807668561 1 1 1
25 4 1 -0.38353 1.159075919765317 4.9174172437297115 9.94017673206787 2 -1 0
2823 353 6 0.19089 0.6175453071588848 9.736691683286104 9.581837631302086 3 1 0
5307 0 7 0 4.260838987263766 0.7907505127977282 2.8800006716489936 1 0 0
5370 0 7 0 0.5573179880725062 8.454627512819027 0.28693967245618934 1 0 1
912 114 6 0.1559 10.089229273025051 4.23164890971832 6.458182598422918 1 2 0
5662 0 8 0 9.421646981891222 2.448032328525349 10.05843666225814 1 0 0
5306 0 7 0 4.177000987280101 0.27347351279639337 1.6955986726945182 1 0 1
333 42 5 -0.008385 2.0032891687561096 5.8683463646546485 1.8715892171600235 3 0 0
5369 0 7 0 0.49270598808278776 8.97393251281867 1.4630246726780272 1 0 1
6047 0 8 0 13.198580987338069 7.073950512814906 3.867646671768577 0 0 0
3941 493 5 -0.008385 9.899557097981631 1.068031636519938 3.3982967591628044 2 2 0
4177 0 7 0 12.933136983158958 3.301107328529167 10.160672662108045 0 0 0
3713 465 1 -0.38353 6.818465500573856 6.5949573876148095 10.652837643609228 1 1 0
5673 0 8 0 0.342616983875229 7.098603328540601 9.259699662142665 1 0 0
2469 309 5 -0.008385 7.113356693133054 3.082581261249325 4.6760760786759175 1 2 2
5304 0 7 0 5.667110986957684 3.933692512806386 0.2574856724621618 1 0 1
3718 465 6 0.19089 7.673685493395199 7.284175273574539 10.423476799937761 1 1 0
4153 0 7 0 5.971169982648606 2.6003883285264138 10.291371662135134 1 0 0
5327 0 7 0 13.0777499873736 4.422056512804621 1.3771626726703339 0 0 1
3611 452 3 0.512161 10.35456580967792 9.58717980006766 0.10893053002932707 1 2 2
1346 169 2 -0.169515 4.569564517846758 11.657044427983115 0.6836730741802434 -1 2 1
2254 282 6 0.19089 10.833070473683964 10.961923600301976 3.1946724848308214 0 2 2
1888 236 6 0.1559 6.443028816163131 10.226050825450786 3.8797310829053337 1 1 1
31 4 6 0.19089 0.31998261406823897 4.553443788429648 9.389688295155679 2 -1 0
1040 130 6 0.1559 12.827137882613979 8.164842619143798 4.784752273353142 1 0 0
30 4 6 0.19089 1.4666010902058213 6.000389495703358 9.855721004645298 2 -1 0
1523 191 3 0.512161 11.048905506465724 8.452913139009697 9.30957680949091 0 0 0
5301 0 7 0 2.1043079877296518 5.5928265128116985 2.94930967165628 1 0 0
5654 0 8 0 2.224889983463614 2.33516732852614 10.053561662270912 1 0 0
5683 0 8 0 5.8844819826632335 11.728325328548426 9.3448836621611 1 0 0
2530 317 2 -0.169515 5.940468645467133 8.03733832360283 6.731494279908948 2 -2 0
3683 461 3 0.512161 11.46792880428526 11.86551435381605 6.978530509186936 -1 -2 3
464 58 6 0.1559 7.5744815687945435 12.37503486504706 0.21558645601621196 0 -1 -2
2194 275 2 -0.169515 8.33019025352319 11.82696988103793 10.677672489672599 3 -2 1
336 42 6 0.1559 4.673141755551019 7.4939579651634345 2.371640426508556 3 0 0
331 42 3 0.512161 2.8479761361895686 6.56854836685129 1.5187892195987764 3 0 0
713 90 1 -0.38353 4.755379441783487 0.5226165317126693 5.00965484593165 -1 1 3
2529 317 1 -0.38353 5.701636977786026 6.689818041837448 6.770597647614191 2 -2 0
6036 0 8 0 3.9328049873313495 2.3005365128017226 4.5799466716098785 1 0 0
1026 129 2 -0.169515 1.031714125318588 0.16394412951844042 3.6153342795624566 0 0 -2
4001 501 1 -0.38353 10.551508083610038 4.534437396234246 0.3610303207313893 4 1 1
2142 268 6 0.19089 2.1129942610580676 8.557130704173199 5.00743981554135 3 -1 0
2531 317 3 0.512161 6.069893358359609 8.884605204643686 7.952567801860067 2 -2 0
3033 380 1 -0.38353 14.063986835466062 9.458907208846094 10.608543770220932 1 0 1
3685 461 5 -0.008385 12.060257372384859 11.560103414830309 7.881588490689519 -1 -2 3
6029 0 8 0 0.3095469881234107 2.4058355128000852 3.8095166717628834 1 0 0
5317 0 7 0 5.982933986887519 6.646836512812863 5.065844671763563 1 0 0
2514 315 2 -0.169515 2.606794992648363 12.345226350621417 9.38762705165399 0 1 2
6039 0 8 0 5.855446986911234 7.01300951281491 3.9460226717781355 1 0 0
4288 0 7 0 11.321556981498643 7.624309328540843 9.237704662136501 1 0 0
907 114 3 0.512161 7.904604696318673 4.2422028311378694 7.054004389179927 1 2 0
5404 0 7 0 3.9008789873366307 11.200521512828775 3.612281671742024 1 0 0
4003 501 3 0.512161 11.675969131601898 6.564008716645633 1.4380452535571417 4 1 1
3042 381 2 -0.169515 1.569365162463617 1.3055143741017845 0.31161981975779823 2 1 1
4282 0 7 0 9.593579981854248 12.163872328557757 9.015408662097219 1 0 0
5315 0 7 0 5.712128986942485 4.958392512810002 6.817537672159899 1 0 0
5681 0 8 0 7.550845982299436 6.960425328539021 9.292581662149663 1 0 0
610 77 2 -0.169515 13.75782096144662 1.19528961896861 6.090455443965534 0 1 2
615 77 6 0.19089 12.342172396854455 0.35563050000722735 7.299526409976376 0 1 2
3179 398 3 0.512161 2.7749592959470206 1.1948184140566043 9.935746485558255 2 1 -1
2807 351 6 0.19089 9.412011916110886 12.07715948992772 3.646604665683431 -1 1 1
1522 191 2 -0.169515 10.623315818371218 7.928156085486597 10.577482712895009 0 0 0
2472 309 6 0.1559 5.208484929749043 2.96898288934073 2.236006782991612 1 2 2
6069 0 8 0 7.558271986529047 11.652588512831061 3.9797946717814545 1 0 0
3723 466 3 0.512161 13.60784275868667 3.977834305463467 3.351291958633095 -1 0 0
2139 268 3 0.512161 2.150522310151644 10.125210739269804 2.8694450226313997 3 -1 0
2467 309 3 0.512161 6.833081156283547 2.839904713792878 3.627745258972679 1 2 2
4186 0 7 0 9.446422981887185 2.9271393285271956 9.004989662094276 1 0 0
5394 0 7 0 7.72837198650182 8.508560512817397 0.3274066724631417 1 0 1
4162 0 7 0 2.34240698343803 2.7378813285271693 8.962639662086506 1 0 0
5407 0 7 0 7.45788498655949 11.258480512821816 5.085070671768072 1 0 0
3939 493 3 0.512161 10.644044081159956 1.1742812145977994 4.249071002098969 2 2 0
137 18 1 -0.38353 6.788223566018168 3.3503360097800674 0.2911229018699745 2 0 1
2532 317 4 -0.488411 6.224610573706593 10.069401893771204 7.887948041906774 2 -2 0
4002 501 2 -0.169515 11.009259930294618 5.226817379518735 1.4616307407849343 4 1 1
2197 275 5 -0.008385 6.7795180832414905 11.96063523961175 9.172924574578532 3 -2 1
144 18 6 0.1559 5.828315518697022 5.2358185952138285 0.3909664160599156 2 0 1
911 114 6 0.19089 9.670192221184733 5.124676699821964 4.138374239297523 1 2 0
3183 398 6 0.19089 3.0603431247790662 3.2185108497014543 7.160378929634745 2 1 -1
616 77 6 0.1559 13.899863520410955 0.2644425819341356 5.44161356580019 0 1 2
1524 191 4 -0.488411 10.333941961499859 9.154714051436331 8.631937356773054 0 0 0
2255 282 6 0.19089 11.328687390462392 9.295850737194284 3.7915915850172106 0 2 2
2144 268 6 0.1559 3.7217532996421405 11.171720474231208 4.040183837646937 3 -1 0
3940 493 4 -0.488411 11.844318412930095 1.1847466661316304 4.058826011080405 2 2 0
3045 381 5 -0.008385 3.3855169550604973 0.2018056565626517 0.712318113686217 2 1 1
2471 309 6 0.19089 3.4477207602048856 3.795566421077332 3.709345655185541 1 2 2
3616 452 6 0.1559 8.177059712172964 9.26723407876295 0.30162559035749864 1 2 2
2466 309 2 -0.169515 5.4542118144533225 3.194332491844532 3.238371249500677 1 2 2
2932 367 4 -0.488411 11.01409078573428 5.222293891974602 8.863457545588528 -2 0 1
142 18 6 0.19089 7.684333239835949 2.82707237548093 0.4724064095111297 2 0 1
1351 169 6 0.19089 4.701379759041629 9.541454170318051 0.2995545233285639 -1 2 1
732 92 4 -0.488411 9.284329750497653 0.8237879760658596 0.2586635477365342 2 -1 1
140 18 4 -0.488411 7.471583661463038 6.372379288735026 2.026794197089563 2 0 1
2143 268 6 0.19089 3.5735057117184312 9.53265117243143 5.84818741210134 3 -1 0
1525 191 5 -0.008385 12.073983093439836 8.223360409335516 9.026555688141544 0 0 0
3943 493 6 0.19089 8.25842114119125 0.9435010378414486 6.716106390593636 2 2 0
3725 466 5 -0.008385 13.660881569871524 3.012791097853404 2.7832636324433944 -1 0 0
1423 178 6 0.19089 10.694628666372221 1.7308998576046823 9.530932170592653 -1 1 0
1027 129 3 0.512161 0.562044070550577 1.5297316988084164 3.407450485044326 0 0 -2
2675 335 3 0.512161 0.4870669532769896 12.076721186702839 5.491502031300201 -1 -1 -1
716 90 4 -0.488411 6.3340504258293855 0.6922833253765333 8.173474792603214 -1 1 3
2676 335 4 -0.488411 0.2529157039578162 11.068660002066126 4.807713054911013 -1 -1 -1
1028 129 4 -0.488411 0.9802386876860174 2.4828282477764017 3.9920595341587632 0 0 -2
1421 178 5 -0.008385 7.672760141565329 3.26108120276792 10.659378800160175 -1 1 0
138 18 2 -0.169515 6.617198316852652 4.632685918398406 0.6839129389767561 2 0 1
1424 178 6 0.1559 8.970219694196482 0.35404056677308277 10.615022458566724 -1 1 0
332 42 4 -0.488411 2.9562378997699184 7.1287934534099024 0.4271285939839837 3 0 0
3610 452 2 -0.169515 9.142953058754953 8.770646228567822 0.06751217717297542 1 2 2
3040 380 6 0.1559 14.281318769758874 7.493198765384656 9.91064941601029 1 0 1
2518 315 6 0.19089 2.3291686402109573 11.94074741017301 7.322223853094014 0 1 2
3632 454 6 0.1559 2.8858546641783653 10.81644706849454 15.96548392297893 -1 3 2
4217 0 7 0 0.42849098385605544 8.92427332854404 12.28729066301774 1 0 0
3529 442 1 -0.38353 13.701813136043686 2.102065120274481 15.812751972012698 -3 -1 1
1419 178 3 0.512161 7.707246465883923 2.179592364618749 10.93139221425086 -1 1 0
4159 0 7 0 7.632204982282179 1.6597573285236815 15.599051663601282 1 0 0
4178 0 7 0 11.386563981490582 0.4738593285214776 12.461130663043233 1 0 0
2660 333 4 -0.488411 1.2197298384452249 2.4724295186893013 18.651537094512893 2 2 1
268 34 4 -0.488411 9.035759871644098 10.248990004743321 16.838378923447486 0 1 2
265 34 1 -0.38353 10.893725219654684 9.673774071161 19.798072990841476 0 1 2
3103 388 6 0.19089 1.0750368292208214 11.013675502495028 19.34450428047359 3 0 0
4561 0 7 0 13.013478983141956 3.0195233285279546 21.051407663260942 0 0 0
2500 313 4 -0.488411 0.18017775050366025 1.4873857665548358 12.114559854659195 0 0 0
4275 0 7 0 11.506423981497129 10.151128328548188 13.878056663446964 1 0 0
1521 191 1 -0.38353 11.395480119710816 7.053454109461593 11.174244592764504 0 0 0
2245 281 5 -0.008385 5.416633999757754 6.968965193554553 19.15427385224884 0 1 1
2663 333 6 0.19089 1.7956922633534982 2.459179164635486 14.250942496602926 2 2 1
4176 0 7 0 13.258413983083377 3.5604843285275978 11.334562662872619 0 0 0
2859 358 3 0.512161 10.035250350654316 3.666138834658351 16.97814352003247 1 1 -1
2661 333 5 -0.008385 3.0298070484637307 2.1927828293725593 17.778309941532815 2 2 1
4252 0 7 0 3.9501209830872694 10.925873328549825 14.458190663512013 1 0 0
343 43 6 0.19089 10.662022947562708 5.129169917720674 19.646057245204354 1 0 1
4253 0 7 0 7.642870982270994 9.669681328542513 17.577383662907906 1 0 0
3629 454 5 -0.008385 1.1479544813297324 8.23471514531352 16.045480150769833 -1 3 2
2858 358 2 -0.169515 9.144203402512879 4.366474700550126 16.04795797132368 1 1 -1
1714 215 2 -0.169515 7.267036241577744 1.6668371037576775 15.586995671958276 -1 1 1
5685 0 8 0 7.647320982273482 11.636593328553607 14.643609663521486 1 0 0
2864 358 6 0.1559 8.450484004106697 3.7085944209181707 15.582132832686378 1 1 -1
266 34 2 -0.169515 10.2530983652263 10.389593641582556 18.89288634876461 0 1 2
4173 0 7 0 9.37441798189551 5.61470032853497 13.65448966342223 1 0 0
3097 388 1 -0.38353 0.9631441926724016 11.715156196794902 18.547342594372925 3 0 0
4254 0 7 0 7.692457982265422 10.24252832854212 16.44748366269581 1 0 0
3715 465 3 0.512161 8.32864248121866 5.358835515344472 12.215072299524358 1 1 0
4157 0 7 0 7.64911698227569 0.348605328520439 17.584766662907434 1 0 0
3626 454 2 -0.169515 1.9874213450867213 10.164307280835875 16.002841854410367 -1 3 2
4570 0 7 0 9.47327198187748 2.802309328527036 19.751898662930056 1 0 0
4155 0 7 0 4.238020983028557 0.8487173285215208 13.767338663434504 1 0 0
2724 341 4 -0.488411 7.751255314735636 8.892052423743886 14.014197357441734 1 0 1
2659 333 3 0.512161 1.925202648195654 2.3310489630629365 17.68808308991257 2 2 1
4231 0 7 0 0.13219598392070886 11.199480328547095 15.863235663626178 1 0 0
1543 193 6 0.19089 11.725900537986915 2.203745736580223 19.419468768150733 1 0 -1
1719 215 6 0.19089 5.737381290587591 3.048623163308569 15.829924235143276 -1 1 1
598 75 6 0.19089 13.168933850251872 10.083739795104318 17.061798802915177 0 1 -1
4545 0 7 0 2.182217983472154 3.5588823285285702 18.943738662749354 1 0 0
5809 0 8 0 7.543179982299298 7.002544328538054 20.058745663003606 1 0 0
2244 281 4 -0.488411 6.732478754468521 6.639363371648215 17.639765164169777 0 1 1
597 75 5 -0.008385 13.162153031932265 9.89726736526971 14.617594764983085 0 1 -1
4135 0 7 0 0.2897399838847635 1.9008513285249686 15.687559663608255 1 0 0
4189 0 7 0 13.175592983102007 6.653173328535478 15.786859663619289 0 0 0
4672 0 7 0 11.088771981544353 7.464696328539335 19.755322662931817 1 0 0
5779 0 8 0 5.78175098268615 2.45282532852521 19.93905366296945 1 0 0
1650 207 2 -0.169515 2.042633109107308 8.493761997496385 11.664724955734929 -1 1 1
2200 275 6 0.1559 9.125975524907163 12.328180056746 11.243000854021307 3 -2 1
1718 215 6 0.19089 5.984235906611062 2.5718112830770696 14.088124037539117 -1 1 1
2248 281 6 0.1559 4.912639219893785 4.729716267233488 16.902874798581504 0 1 1
3534 442 6 0.19089 12.807536224480002 2.5713325939804004 16.202009973122106 -3 -1 1
4569 0 7 0 9.300998981916205 3.799788328531081 19.05220966277308 1 0 0
4633 0 7 0 5.675549982710871 12.32465432855289 20.983055663245658 1 0 0
4242 0 7 0 7.925092982216007 8.618183328542353 10.895798662807001 1 0 0
1470 184 6 0.19089 9.02462874234395 6.823092701399815 20.981932416825902 -1 1 0
3628 454 4 -0.488411 3.178961502390187 8.151225381702735 16.43968882676181 -1 3 2
2723 341 3 0.512161 6.684517780465549 8.423489579833307 13.599469035024596 1 0 1
4647 0 7 0 4.053249983064684 8.33448732853872 19.093839662781406 1 0 0
596 75 4 -0.488411 12.057435822881152 8.618516211157727 13.6089259966969 0 1 -1
2657 333 1 -0.38353 2.210710358703665 2.3943398360319486 15.233129956258306 2 2 1
2115 265 3 0.512161 10.161483840469593 11.80835840962572 14.44260213165364 1 -2 0
2725 341 5 -0.008385 6.331038406669991 8.601268665982245 12.534244521998978 1 0 1
1528 191 6 0.1559 9.635697865717248 8.2229438727234 10.958975589710395 0 0 0
5782 0 8 0 2.1232059834865105 2.3724503285249914 20.86354866321047 1 0 0
3407 426 6 0.19089 13.725142715017398 10.212468116740144 20.525171489888887 2 3 2
1542 193 6 0.19089 12.017389034557118 2.2495991139739884 21.31757091278883 1 0 -1
1544 193 6 0.1559 10.48653787640218 0.1756021802297046 19.47824909374975 1 0 -1
511 64 6 0.19089 6.284214785284582 10.969589274109232 17.19485795585406 2 -1 -1
3320 415 6 0.1559 14.389957623500324 7.630820443400886 13.247118498995677 1 1 2
1717 215 5 -0.008385 7.886256191488607 1.101060312243455 13.605474434131782 -1 1 1
5819 0 8 0 13.057711983133204 11.686613328554074 20.120466663022942 0 0 0
4175 0 7 0 13.05488798313064 4.406489328530446 12.295246663016727 0 0 0
2727 341 6 0.19089 4.4917209522754815 5.779488921787122 14.397212695775853 1 0 1
338 43 2 -0.169515 9.04110126587325 3.801349431164746 20.129595588473187 1 0 1
4241 0 7 0 7.804194982240889 9.053854328543073 12.137840662992682 1 0 0
2860 358 4 -0.488411 10.012370789480217 2.5042325807153523 17.191516191156758 1 1 -1
3500 438 4 -0.488411 5.632358987637081 2.4616442468622077 18.800402826477182 1 1 2
2728 341 6 0.1559 6.096701384735693 7.252316841632256 15.48636329896715 1 0 1
509 64 5 -0.008385 4.234708182295435 9.3010684200202 19.884136630043184 2 -1 -1
29 4 5 -0.008385 2.9688767908131175 5.690580172960614 11.746736464171992 2 -1 0
3716 465 4 -0.488411 8.4661827846157 4.438020409166951 12.946015740410214 1 1 0
4218 0 7 0 0.4655639838478528 8.441125328541721 11.095446662837533 1 0 0
5677 0 8 0 0.2750259838853425 11.59814632855147 14.754409663526147 1 0 0
4642 0 7 0 2.3033969834489967 11.944529328556147 19.63622866290645 1 0 0
2199 275 6 0.19089 8.585740248174726 9.935728078837451 11.59572984692359 3 -2 1
1757 220 5 -0.008385 13.23704309342648 6.54475508025154 15.892260987077638 0 0 -1
4164 0 7 0 5.903317982658576 5.822497328537235 16.499790662704907 1 0 0
270 34 6 0.19089 10.89986074319738 8.560210742991016 19.810088104661645 0 1 2
2857 358 1 -0.38353 9.233338375565967 5.672876964394699 15.725824617905639 1 1 -1
5660 0 8 0 11.27822398150451 2.291631328526446 15.478995663590975 1 0 0
4276 0 7 0 11.083188981548663 11.436963328545842 14.355967663502085 1 0 0
3625 454 1 -0.38353 0.7641437927833842 10.697295683814787 15.784365130718003 -1 3 2
4163 0 7 0 5.754841982689792 5.075154328531271 17.512454662896783 1 0 0
1755 220 3 0.512161 13.00730376002488 5.543970643520055 16.295087531280636 0 0 -1
5787 0 8 0 13.088971983123573 2.4191113285249104 20.091208663015713 0 0 0
2071 259 6 0.19089 3.7482461941414966 6.312281986957486 20.85449738454943 2 0 1
3714 465 2 -0.169515 6.9785097574839305 5.5683868133480106 11.554387820677254 1 1 0
1753 220 1 -0.38353 14.376438616250379 6.164852106077289 18.268124464211365 0 0 -1
1716 215 4 -0.488411 9.009366490025336 0.14974545733924685 14.990022248968117 -1 1 1
2722 341 2 -0.169515 5.89239162771267 7.415839793722607 14.400635312733064 1 0 1
1537 193 1 -0.38353 11.550558061929978 1.7727403157328607 20.395185219871934 1 0 -1
4150 0 7 0 1.9544369835217634 6.05807232853454 14.556737663516113 1 0 0
2118 265 6 0.19089 10.763256769993356 10.665630378846227 12.081726147699264 1 -2 0
5811 0 8 0 5.72261198269935 11.67339432854786 20.03548466299974 1 0 0
3533 442 5 -0.008385 11.914321603455585 2.8691352071578065 13.883466644276476 -3 -1 1