LAMMPS data file via write_data, version 29 Sep 2021, timestep = 1000000

4096 atoms
8 atom types
3584 bonds
6 bond types
4608 angles
8 angle types
4096 dihedrals
6 dihedral types
1536 impropers
3 improper types

0 30.167756 xlo xhi
0 38.212491 ylo yhi
0 44.2460419 zlo zhi
0 0 0 xy xz yz

Masses

1 12.01
2 12.01
3 12.01
4 16
5 1.008
6 1.008
7 0.001
8 0.001

Bond Coeffs # harmonic

1 343.1 1.088
2 547.3 1.346
3 342.5 1.088
4 354.5 1.482
5 310.7 1.112
6 637.7 1.218

Angle Coeffs # harmonic

1 49.6 119.94
2 65.5 120.42
3 38.1 116.9
4 49.5 120.45
5 46.7 114.89
6 68.8 123.2
7 46.5 116.46
8 54.2 120.7

Dihedral Coeffs # charmm

1 2.175 2 180 0
2 2.175 2 180 0
3 6.65 2 180 0
4 6.65 2 180 0
5 2.175 2 180 0
6 2.175 2 180 0

Improper Coeffs # cvff

1 10.5 -1 2
2 1.1 -1 2
3 1.1 -1 2

Atoms # full

2355 295 3 0.512161 6.922746699101696 12.254196204427743 6.280618382501853 0 0 1
3220 403 4 -0.488411 3.556098913939541 5.849388244838901 8.794558313722732 4 2 0
197 25 5 -0.008385 8.830469820303735 8.318545567930968 10.724576899960244 2 -1 0
4025 504 1 -0.38353 4.729111212986597 2.0431212940956596 9.576838610163662 -4 0 3
198 25 6 0.19089 6.429828238739951 7.8596733263655665 10.339606020000913 2 -1 0
3625 454 1 -0.38353 12.911707363710644 0.47794996993256794 8.05916569783609 -3 4 1
2618 328 2 -0.169515 8.009505642375256 4.108480926256887 10.68546457734388 2 2 -1
563 71 3 0.512161 10.363163133197194 3.721557720812457 3.6891736136833027 0 -2 0
1972 247 4 -0.488411 6.162683892304861 6.1398347965289055 7.755846181157195 3 2 -1
3903 488 6 0.19089 2.217089500823073 8.141324657965997 6.343416717865215 0 4 1
610 77 2 -0.169515 11.86636721919528 12.422078352430614 9.479475216833187 2 1 1
393 50 1 -0.38353 2.82865436672934 5.110523849021695 6.392721078276468 4 3 -1
611 77 3 0.512161 12.820427821011188 11.559027926148977 8.719218068272852 2 1 1
587 74 3 0.512161 3.81964008908575 6.943561295494239 0.921073034306988 0 -1 1
691 87 3 0.512161 10.474390485150339 8.638639125266986 4.926281860676256 0 -1 2
2621 328 5 -0.008385 8.148413243516272 1.9917278653502843 10.153947826620234 2 2 -1
956 120 4 -0.488411 14.888621788242656 5.870915964513453 7.945161739596598 4 -1 2
3606 451 6 0.19089 3.2570492707089067 11.80729986671571 3.706129997252397 1 0 1
3219 403 3 0.512161 3.7396137696107226 5.432987226204157 9.927191346681221 4 2 0
2089 262 1 -0.38353 9.555082795224475 3.681742782954479 0.11040480465343133 1 0 -1
3627 454 3 0.512161 12.275214344361347 2.7706416586520883 7.457953781277273 -3 4 1
2418 303 2 -0.169515 13.701767758322415 12.009403909669178 5.08703091385071 -3 0 0
1798 225 6 0.19089 12.019547102031774 1.7214186110685163 3.1262067127801547 -2 0 0
1796 225 4 -0.488411 14.037008480256251 4.2157135857423595 0.798599937466646 -2 0 0
3629 454 5 -0.008385 11.275455816655924 2.3749415640144873 7.1022309511656525 -3 4 1
2617 328 1 -0.38353 8.440507391315505 4.499569941895099 9.4647426974155 2 2 -1
713 90 1 -0.38353 13.885979627905412 10.244843880883769 2.218832549885832 -1 0 3
612 77 4 -0.488411 13.877007998536362 11.119878312295443 9.203110366944243 2 1 1
2242 281 2 -0.169515 11.821541905499478 5.355489826399258 9.879100836499662 -1 2 2
140 18 4 -0.488411 6.227924518715951 11.537670629830167 3.5383444359097047 2 2 1
2039 255 6 0.19089 15.070084277811926 2.154459760345872 5.984994802088298 0 -1 -2
1668 209 4 -0.488411 1.770644526094024 8.715056326250613 3.134634089958268 1 0 2
2243 281 3 0.512161 11.621405515161152 6.814161084460485 9.733484294659423 -1 2 2
1800 225 6 0.1559 14.832863640379882 1.848577575985709 1.9393025533528077 -2 0 0
400 50 6 0.1559 1.2495881259447061 3.6920232831551547 6.609361280666828 4 3 -1
3900 488 4 -0.488411 4.774665416963217 10.933999876723242 8.786993497858509 0 4 1
1975 247 6 0.19089 5.673516063244788 8.20208541620211 3.887198258284521 3 2 -1
199 25 6 0.19089 5.2088453504170324 9.216127707151612 10.505133770216693 2 -1 0
3898 488 2 -0.169515 3.5429244273828098 9.408203290357797 7.489661235922943 0 4 1
2093 262 5 -0.008385 8.297321850258498 5.759409038992841 0.5963965831710788 1 0 -1
63 8 6 0.19089 0.20511162165324678 10.595859665967408 1.1427172908165135 1 -2 2
3899 488 3 0.512161 3.6860430584010513 10.50544825366233 8.469369651207403 0 4 1
1832 229 6 0.1559 6.439493140905239 1.2367273040451523 4.267922078453908 -1 2 0
2354 295 2 -0.169515 8.396491958652584 12.13708971059234 6.561659945603139 0 0 1
693 87 5 -0.008385 10.994183277114598 8.794477649799322 3.986098435545372 0 -1 2
3628 454 4 -0.488411 12.5883865045804 3.953145912263927 7.271156184021282 -3 4 1
2417 303 1 -0.38353 14.371765558677321 12.61800772527262 6.065232576381494 -3 0 0
394 50 2 -0.169515 2.3375334749189487 3.837607158048703 6.42298197051227 4 3 -1
1795 225 3 0.512161 13.345401917654751 3.595886650578799 1.5659886410069421 -2 0 0
399 50 6 0.19089 2.0921263555433596 5.950028422186466 6.478365388376208 4 3 -1
616 77 6 0.1559 11.975910280399695 12.49308673740745 10.582442658347189 2 1 1
696 87 6 0.1559 8.918318199439133 7.458202551122628 5.892991493329466 0 -1 2
568 71 6 0.1559 10.081207475561229 3.5196131322945217 5.868397131948466 0 -2 0
694 87 6 0.19089 9.211073816663225 7.324454197813805 2.7993178787260655 0 -1 2
143 18 6 0.19089 7.168200789479235 8.13926413874642 0.9262901798706616 2 2 1
2639 330 6 0.19089 4.447844052844406 12.06154544000638 0.6775415555497143 3 3 0
2241 281 1 -0.38353 12.56746644642378 4.868105183064779 10.849950551471327 -1 2 2
2419 303 3 0.512161 12.597165638267713 12.697183751596862 4.397694759874401 -3 0 0
567 71 6 0.19089 10.827448681289281 5.799270172338938 6.418953042473632 0 -2 0
2247 281 6 0.19089 12.609577275558468 3.787633193963687 10.962801978612617 -1 2 2
138 18 2 -0.169515 6.589355261727942 9.762193935870481 2.1669489390851373 2 2 1
3897 488 1 -0.38353 2.341393825970282 8.93748064264555 7.0939249917989615 0 4 1
689 87 1 -0.38353 8.807636894117701 7.185035946979488 3.806400345094375 0 -1 2
1666 209 2 -0.169515 0.43055576855617456 6.802746715569454 3.6704731302242255 1 0 2
4031 504 6 0.19089 4.091268722909922 2.4513906798851846 10.39308257367593 -4 0 3
2287 286 6 0.19089 1.0419408361655356 11.183979534369756 6.325696927749812 -1 0 -1
2424 303 6 0.1559 14.037734328137974 11.020657896986947 4.742354214353599 -3 0 0
247 31 6 0.19089 0.3996516538148738 7.144596248157227 8.857502953340802 1 0 1
398 50 6 0.19089 3.855628491242772 5.295436935664785 6.235352572409676 4 3 -1
1830 229 6 0.19089 5.523234022129702 2.490072196947633 1.6600602313339223 -1 2 0
1670 209 6 0.19089 1.3546673056946785 5.064978382227613 4.3484982747628464 1 0 2
2222 278 6 0.19089 2.649024909089968 2.0917281605186444 3.446723411635681 0 0 0
110 14 6 0.19089 11.31244474367791 7.858140202770864 1.8044727014353221 -3 0 -1
2357 295 5 -0.008385 6.33187630489236 11.613643072264162 6.849074164257575 0 0 1
591 74 6 0.19089 2.7415821637198206 3.6808332114261706 0.18234192657151546 0 -1 1
566 71 6 0.19089 11.20766591782897 6.011565527059136 4.607552728379237 0 -2 0
2623 328 6 0.19089 8.658328236416766 5.511690839473956 9.190705091019758 2 2 -1
397 50 5 -0.008385 4.237568322247165 2.790459866481283 5.855541412984126 4 3 -1
1794 225 2 -0.169515 13.793078814145817 2.2443826198079817 2.075610412845859 -2 0 0
194 25 2 -0.169515 7.296945315253128 9.821618234122221 10.728177403305073 2 -1 0
1831 229 6 0.19089 5.941240114751905 0.671989070830009 2.0649157454132387 -1 2 0
4030 504 6 0.19089 5.680524367998908 2.5502215604437657 9.355896255603907 -4 0 3
2244 281 4 -0.488411 10.941056146647117 7.284039795627956 8.856164984638106 -1 2 2
1973 247 5 -0.008385 7.413001797630644 7.537021853465894 7.115526855397759 3 2 -1
3607 451 6 0.19089 1.5888367003374029 11.00516369479381 4.00253546868531 1 0 1
1976 247 6 0.1559 4.784314801318822 6.630931381910179 5.5958408788001925 3 2 -1
62 8 6 0.19089 2.035560800436408 10.771629882423197 1.1434273267286625 1 -2 2
2619 328 3 0.512161 7.806830077072983 2.666871458743948 11.01025359778363 2 2 -1
1827 229 3 0.512161 6.211689820124153 3.4579787494020247 4.038398309240096 -1 2 0
1793 225 1 -0.38353 12.993566555913283 1.417722650586744 2.798533273268857 -2 0 0
2245 281 5 -0.008385 12.165594641920833 7.409151313991823 10.442424025990148 -1 2 2
1970 247 2 -0.169515 5.7641517696089855 7.113184870040105 5.702725508410252 3 2 -1
1825 229 1 -0.38353 5.836394852850335 1.701774513259611 2.3558801316255167 -1 2 0
3224 403 6 0.1559 5.980460677559008 5.371709091682849 10.115971006786394 4 2 0
718 90 6 0.19089 13.75977184376649 11.28719528665945 2.1866649398707887 -1 0 3
2420 303 4 -0.488411 12.005486184836084 12.118535579379767 3.5061774526991067 -3 0 0
1797 225 5 -0.008385 12.375143875016784 3.937552187645286 1.886319697965526 -2 0 0
4026 504 2 -0.169515 4.386686595392073 0.9006008227062445 8.999596314030157 -4 0 3
3904 488 6 0.1559 4.474123308043826 9.001516521522165 7.083310293957429 0 4 1
396 50 4 -0.488411 2.706404762641852 1.4898178808615308 6.266025578540668 4 3 -1
714 90 2 -0.169515 14.28811476612886 9.469572810897523 1.1840351352134404 -1 0 3
2622 328 6 0.19089 8.620238224332745 3.712474792501647 8.67545969354202 2 2 -1
690 87 2 -0.169515 9.317534859260304 7.694838379411578 4.934164643222904 0 -1 2
193 25 1 -0.38353 6.27482214184223 8.907151298932611 10.541525215983496 2 -1 0
564 71 4 -0.488411 9.93814327811075 2.622110317702582 3.324004773016271 0 -2 0
2353 295 1 -0.38353 8.938637067978105 11.327213247547009 7.472201659849438 0 0 1
2477 310 5 -0.008385 13.44061930487871 9.247769979961005 6.438749188841968 -1 0 -2
1971 247 3 0.512161 6.461425147384209 6.9968186307143325 6.980335950673425 3 2 -1
111 14 6 0.19089 12.598637412663354 6.460429862071619 1.820711116322845 -3 0 -1
142 18 6 0.19089 8.600682676808507 9.172477933447677 1.6114982607045432 2 2 1
2257 283 1 -0.38353 1.2001502277221405 10.150338536685243 10.824894649878276 -1 -2 0
3218 403 2 -0.169515 5.023422240251063 5.153891257074254 10.608731168231238 4 2 0
3626 454 2 -0.169515 13.232070096962698 1.7807876802114349 7.985121963636708 -3 4 1
2475 310 3 0.512161 13.790677695334569 8.539078643932491 5.691165632922556 -1 0 -2
144 18 6 0.1559 5.48260689027395 9.595799171767629 1.9793925630305584 2 2 1
2217 278 1 -0.38353 1.8911846336612776 1.4444198202620235 3.2828025312393083 0 0 0
695 87 6 0.19089 7.956592952819585 6.498513276807146 3.873578865976035 0 -1 2
2094 262 6 0.19089 10.15658268599618 4.561282743262112 0.3474775262913704 1 0 -1
1799 225 6 0.19089 13.342555540305973 0.36990689021812856 3.1299781824348445 -2 0 0
588 74 4 -0.488411 3.786185587711878 7.880291669310611 1.6787217750510555 0 -1 1
2218 278 2 -0.169515 1.7662988390646281 0.6365831310570698 2.2377265514401494 0 0 0
141 18 5 -0.008385 8.111188438206351 11.085848981304311 3.135579151681923 2 2 1
3901 488 5 -0.008385 2.7915661736511526 10.849749201349365 9.011593613965099 0 4 1
562 71 2 -0.169515 10.47571705320421 4.1428544275611605 5.0891612634057894 0 -2 0
692 87 4 -0.488411 10.858923838926529 9.33303031580322 5.874852849645605 0 -1 2
395 50 3 0.512161 3.1819773811629193 2.640066818766354 6.231375583965501 4 3 -1
2248 281 6 0.1559 11.26173304831169 4.655347488393676 9.2804307146947 -1 2 2
2219 278 3 0.512161 2.6239846608160877 0.832506760571165 1.0308535690000669 0 0 0
1669 209 5 -0.008385 2.5497923575042156 7.128482992975522 4.126413819415823 1 0 2
561 71 1 -0.38353 10.850452113004383 5.419974245905682 5.36916153361197 0 -2 0
195 25 3 0.512161 8.73100616608146 9.439751002598712 10.736365890347367 2 -1 0
2476 310 4 -0.488411 13.05227159895941 7.7162173063352695 5.230325450187973 -1 0 -2
3630 454 6 0.19089 12.054526589013266 0.03135642404775955 7.691837416963762 -3 4 1
1974 247 6 0.19089 7.066833294468871 8.608845026910437 5.023304765156403 3 2 -1
57 8 1 -0.38353 1.1561540764209233 10.317020828630234 0.6964169808666666 1 -2 2
3632 454 6 0.1559 14.189405770305777 2.1255483535443553 8.346615962445647 -3 4 1
2262 283 6 0.19089 0.4715217360250766 9.348973573702505 10.580854806144757 -1 -2 0
565 71 5 -0.008385 10.641763041104003 4.510505520404425 2.9348266020672775 0 -2 0
137 18 1 -0.38353 7.503988677466542 9.042372386673366 1.4999840912905258 2 2 1
2223 278 6 0.19089 1.2522105591705426 1.3335522088265246 4.139589273383803 0 0 0
1828 229 4 -0.488411 6.420870682264029 3.7814035194781255 5.181860387059943 -1 2 0
2358 295 6 0.19089 8.366219193784644 10.666472903866248 8.091985017365165 0 0 1
2288 286 6 0.1559 2.0239492067442333 12.57371182445596 8.150658054148245 -1 0 -1
1665 209 1 -0.38353 0.41138059792841253 5.54422839953826 4.074561712179093 1 0 2
586 74 2 -0.169515 3.167970848403088 5.620309942877953 1.0606682429579828 0 -1 1
4029 504 5 -0.008385 6.219312227552872 0.7519820674824588 7.733951591016671 -4 0 3
613 77 5 -0.008385 12.607981733991366 11.435374337912267 7.64453429322751 2 1 1
2091 262 3 0.512161 7.577573840542856 5.044884165666122 0.17150777759573227 1 0 -1
1667 209 3 0.512161 1.6356865628180919 7.650279814821145 3.7167623824923672 1 0 2
139 18 3 0.512161 7.042262571651362 10.840036003737424 3.0387094269006525 2 2 1
1969 247 1 -0.38353 6.158573772270084 8.060094535599745 4.860680192600955 3 2 -1
592 74 6 0.1559 2.5165015103876907 5.423008594809724 1.9405863390727665 0 -1 1
105 14 1 -0.38353 11.852291406814214 7.069828827238583 1.258850387024998 -3 0 -1
1829 229 5 -0.008385 5.864698221086918 4.280460275510563 3.269801682098291 -1 2 0
2221 278 5 -0.008385 3.311976551550418 1.720325173207608 1.0406419197398757 0 0 0
3902 488 6 0.19089 1.4878282026055243 9.387136082770784 7.621144249499751 0 4 1
4032 504 6 0.1559 3.536603863539813 0.3894038976541819 9.26668693226159 -4 0 3
3601 451 1 -0.38353 2.1822241069634067 11.797283687840666 3.4801652250661235 1 0 1
4027 504 3 0.512161 5.230216920322403 0.28678409583549686 7.954338529019868 -4 0 3
1826 229 2 -0.169515 6.152452402031735 2.038730192738281 3.5599300339245827 -1 2 0
2359 295 6 0.19089 10.047075855152244 11.333678760515873 7.699509276886493 0 0 1
719 90 6 0.19089 13.820742193627632 9.823350012191305 3.1827819745006285 -1 0 3
2281 286 1 -0.38353 0.8552742928567318 12.281768357213137 6.441616856812617 -1 0 -1
3221 403 5 -0.008385 2.902470008716141 5.31736183271486 10.667724782684408 4 2 0
2263 283 6 0.19089 1.0229351323062497 11.23216073871329 10.522279683654537 -1 -2 0
2092 262 4 -0.488411 6.38505412914679 5.281115988649133 0.1012696935966614 1 0 -1
720 90 6 0.1559 14.474669546055672 8.406033356300492 1.3584717793995682 -1 0 3
196 25 4 -0.488411 9.708664756780678 10.199029083277797 10.747383892359483 2 -1 0
989 124 5 -0.008385 0.18434912610621934 0.41978906964284884 8.0958921934136 3 -1 -1
200 25 6 0.1559 7.059715538459478 10.862043375731558 10.75287766436782 2 -1 0
589 74 5 -0.008385 4.473620012432094 6.9777774512516135 0.030555764655806315 0 -1 1
585 74 1 -0.38353 3.252420035364186 4.658812347565369 0.10711892725940164 0 -1 1
2090 262 2 -0.169515 8.246681373439603 3.7537153462558748 0.0456989053984001 1 0 -1
2691 337 3 0.512161 11.044410184320279 4.8999231475725065 14.236252538107802 1 0 2
582 73 6 0.19089 5.726797570873399 0.7838893740923878 15.531097762701068 -3 -2 3
1724 216 4 -0.488411 0.8804572156222245 0.1844155117626145 11.921869480127835 -2 1 -2
2070 259 6 0.19089 2.6008922138373882 7.355759129135716 14.334764606023187 4 -1 0
3510 439 6 0.19089 14.117758237553838 11.947326859192284 20.860821787783777 2 -1 1
3739 468 3 0.512161 12.237218517425882 11.661856192563759 12.574817112576078 -1 0 -1
3741 468 5 -0.008385 11.24644138218885 11.802512526040998 12.171992135412209 -1 0 -1
3012 377 4 -0.488411 12.869005000782437 2.1992298314883154 18.083546942302394 2 -1 0
2624 328 6 0.1559 7.779191741778327 4.814678210093095 11.420314117863196 2 2 -1
584 73 6 0.1559 2.8413338746745684 1.5152235853167335 16.40096438189228 -3 -2 3
3011 377 3 0.512161 12.820477153272305 1.2556083048194355 17.284187832872554 2 -1 0
3203 401 3 0.512161 4.861463643238451 4.7101797653462425 16.164176154709157 -1 0 3
1277 160 5 -0.008385 4.659251390176995 7.417664608418782 16.779688088949403 2 0 -2
3206 401 6 0.19089 6.662560144557775 6.012082946321502 17.69906303410947 -1 0 3
919 115 6 0.19089 14.851150939225855 6.451448260488685 13.0689167995079 -2 0 -2
1559 195 6 0.19089 10.390694262506072 0.7102922771844712 19.652627068044684 1 2 -1
804 101 4 -0.488411 13.083491937240831 3.937953354511076 20.47589102965673 1 2 1
388 49 4 -0.488411 1.2209782930584103 11.020004968450754 20.16503455363707 0 -2 1
1273 160 1 -0.38353 3.534813299644428 7.581659100833996 19.1858530925109 2 0 -2
3742 468 6 0.19089 10.620054707111521 12.62973996603293 14.446000255260097 -1 0 -1
1276 160 4 -0.488411 5.62778082366067 9.202743445302408 16.75951339991462 2 0 -2
1811 227 3 0.512161 7.690152932279409 3.158826910044881 15.141373736824779 -3 0 -2
1813 227 5 -0.008385 7.417246296257929 3.2601652302519017 14.086128244959935 -3 0 -2
2564 321 4 -0.488411 14.83754273264747 3.0290676654867053 16.416068906146982 -1 2 1
3535 442 6 0.19089 1.1099165968999634 4.370889191847191 13.482058621474316 -5 -1 1
3942 493 6 0.19089 4.5807405513733155 12.418851783217402 17.014015500451602 2 1 0
2531 317 3 0.512161 0.4970069439413479 3.136604575925538 16.17850626343351 2 -2 -1
2620 328 4 -0.488411 7.401530971223419 2.25707537654763 12.077861360913117 2 2 -1
2562 321 2 -0.169515 15.054276703623433 1.7677993031734534 14.413903043718578 -1 2 1
3534 442 6 0.19089 0.9153658101832837 2.688240764268523 12.858116238245763 -5 -1 1
3738 468 2 -0.169515 12.439583597137732 11.626775409893858 14.037731056026672 -1 0 -1
1275 160 3 0.512161 4.999825379377841 8.330527004539528 17.347234012284936 2 0 -2
3202 401 2 -0.169515 5.287716553743449 4.375428362075483 17.576552510691396 -1 0 3
803 101 3 0.512161 13.866679251144301 4.805199281336675 20.826275938293307 1 2 1
341 43 5 -0.008385 11.827162709694893 8.961028283279028 17.72742665057211 0 1 0
1554 195 2 -0.169515 9.733535423399156 2.0224687494682456 21.204606337624483 1 2 -1
578 73 2 -0.169515 3.843882352564776 1.1487092572085351 16.485761643751385 -3 -2 3
2258 283 2 -0.169515 2.3091985402663537 9.895116372597666 11.509782799389614 -1 -2 0
3737 468 1 -0.38353 11.484272205664064 12.13277710057661 14.8608464303533 -1 0 -1
3941 493 5 -0.008385 4.644983950959196 11.485583467013033 19.49872040325034 2 1 0
1951 244 6 0.19089 0.1416120752694555 2.0692821866258457 21.63253426792851 -1 0 -2
2142 268 6 0.19089 8.599171216412776 9.096615083343558 17.981389962280815 1 -1 0
3944 493 6 0.1559 7.355969492555064 12.614108848750044 18.4688615774297 2 1 0
2067 259 3 0.512161 0.1408734981995772 8.563627748621126 15.037998655957384 4 -1 0
2260 283 4 -0.488411 3.7486602000385885 8.210102228372499 12.332965612430256 -1 -2 0
2259 283 3 0.512161 2.6776230741591758 8.471267073212472 11.83880055511836 -1 -2 0
3205 401 5 -0.008385 5.128812345290505 5.760456523972415 15.762735181749768 -1 0 3
3009 377 1 -0.38353 12.01440360858599 0.18503444702999994 15.20176651406624 2 -1 0
2568 321 6 0.1559 14.295539920570516 1.059904382282194 14.748593329932392 -1 2 1
642 81 2 -0.169515 9.893196507056295 6.50787684331626 21.831413922981856 3 -1 1
1280 160 6 0.1559 4.525994562577746 9.499554444709162 19.178876716815335 2 0 -2
3207 401 6 0.19089 6.240727229624407 5.180619215988625 19.26859009052416 -1 0 3
2533 317 5 -0.008385 1.0842686082341952 2.332546331136137 16.748039691191654 2 -2 -1
1172 147 4 -0.488411 13.90219383049637 7.577824880126619 15.934852962620164 0 -1 0
3217 403 1 -0.38353 4.95996062978769 4.73249566344307 11.888196325998969 4 2 0
643 81 3 0.512161 9.456489538347219 5.716528868909132 20.634230821213073 3 -1 1
644 81 4 -0.488411 8.346710448554058 5.744662986471 20.115008868692037 3 -1 1
3088 386 6 0.1559 0.8489861264686439 11.85106310370228 13.159911601571544 0 -1 1
2261 283 5 -0.008385 1.9498913722156417 7.685407190348209 11.572312076250558 -1 -2 0
2529 317 1 -0.38353 0.8835175357150072 4.660778800052531 18.081658832605115 2 -2 -1
580 73 4 -0.488411 3.630849587612521 0.6754128009009323 18.869720490438496 -3 -2 3
3208 401 6 0.1559 4.809196587682477 3.5470348235566633 17.98482412154269 -1 0 3
3222 403 6 0.19089 4.003754924894586 4.461085119710158 12.354995674186563 4 2 0
1553 195 1 -0.38353 9.627072821039064 1.4246874751580945 20.00799010049555 1 2 -1
2069 259 5 -0.008385 0.29927240884757245 8.407429838156693 13.930712048323967 4 -1 0
3016 377 6 0.1559 11.614428094710664 2.184057792691313 15.64588930045889 2 -1 0
3010 377 2 -0.169515 12.08032163051025 1.281769057745003 15.986525503285426 2 -1 0
1816 227 6 0.1559 8.258133778438822 1.6608093897361005 16.657302427008972 -3 0 -2
2264 283 6 0.1559 3.030164374932735 10.68720303556754 11.735575473314821 -1 -2 0
3937 493 1 -0.38353 5.688587756302887 12.65022188423531 17.191718913930334 2 1 0
2693 337 5 -0.008385 10.004660311770664 4.775443505378962 14.552695002369559 1 0 2
2139 268 3 0.512161 8.362839252331957 9.505045108178624 15.40697500166186 1 -1 0
1274 160 2 -0.169515 4.40618477745564 8.528735511349288 18.741792089964274 2 0 -2
1950 244 6 0.19089 0.8084951297213536 3.811627590757051 22.097038421926307 -1 0 -2
344 43 6 0.1559 12.04920661437868 6.641340323099015 19.75669166327992 0 1 0
3060 383 4 -0.488411 11.254524066776938 10.583209538782402 21.436005018357914 -2 3 3
2530 317 2 -0.169515 0.3122591994820294 4.373840690816411 16.90917402644964 2 -2 -1
389 49 5 -0.008385 3.2449817351047243 11.19992680486725 20.585276372906065 0 -2 1
387 49 3 0.512161 2.234843758820773 11.648829384484884 20.417886534214155 0 -2 1
1558 195 6 0.19089 8.88899212113985 1.7821042272050893 19.304737603279964 1 2 -1
342 43 6 0.19089 13.750362923999928 9.186412198351686 19.2564131073697 0 1 0
2137 268 1 -0.38353 8.70369817455575 10.190822095136312 17.70534487707099 1 -1 0
3013 377 5 -0.008385 13.225518325936134 0.23759302499331328 17.53688593419946 2 -1 0
343 43 6 0.19089 14.066507658461864 7.859473083429055 20.600730942474318 0 1 0
337 43 1 -0.38353 13.498223593180747 8.236116388872523 19.707306912036735 0 1 0
678 85 6 0.19089 2.0000089538182118 12.535850759546811 15.95942162526948 -2 -2 -1
3059 383 3 0.512161 11.607615991941024 11.631649874917183 21.949632315111547 -2 3 3
2694 337 6 0.19089 9.649625323647578 2.853034919003442 13.636154397242645 1 0 2
1812 227 4 -0.488411 7.603685890787311 4.099352319115875 15.890910499312394 -3 0 -2
2532 317 4 -0.488411 0.035950956485146575 2.844555299432702 15.090361155533557 2 -2 -1
3744 468 6 0.1559 13.258413874685406 11.037545658475093 14.419920237138506 -1 0 -1
3015 377 6 0.19089 11.604357377817998 0.23460835422885448 14.22540948775544 2 -1 0
3215 402 6 0.19089 11.881474425622988 11.60051134332553 18.543038853608117 0 2 1
583 73 6 0.19089 4.346598317667215 1.5479539617955274 14.510884151984957 -3 -2 3
1810 227 2 -0.169515 8.113505841495865 1.8229961500296865 15.599971823627499 -3 0 -2
3938 493 2 -0.169515 6.310436163047099 12.371160609873735 18.360774872504713 2 1 0
2143 268 6 0.19089 9.024780909083553 10.970290792074191 18.4552662644786 1 -1 0
2692 337 4 -0.488411 11.653447279934001 5.959703210419314 14.457683247287003 1 0 2
645 81 5 -0.008385 10.28277931838096 5.163749893619788 20.138560504514423 3 -1 1
3223 403 6 0.19089 5.8144655792062006 4.400816132561539 12.484653608678604 4 2 0
2140 268 4 -0.488411 8.575999544997178 9.665235887041296 14.238741813629884 1 -1 0
2696 337 6 0.1559 12.551449336460914 3.691973845167981 13.174865849804608 1 0 2
340 43 4 -0.488411 10.503130234549667 7.480365120376605 17.80919752775074 0 1 0
3939 493 3 0.512161 5.677320550271025 11.795997419060336 19.564120457314758 2 1 0
805 101 5 -0.008385 13.795925598342864 5.8136989826955965 20.40851762234642 1 2 1
339 43 3 0.512161 11.504776601302211 8.023899022682611 18.175016515277196 0 1 0
1555 195 3 0.512161 8.816858273045327 3.091456096343264 21.73490699681308 1 2 -1
3940 493 4 -0.488411 6.250794994135056 11.67781760762082 20.667018834577203 2 1 0
579 73 3 0.512161 4.315226647431376 0.7180140019652643 17.850084712696443 -3 -2 3
802 101 2 -0.169515 14.866409102904452 4.512999150634595 21.897753403312077 1 2 1
2066 259 2 -0.169515 1.1761079402055536 7.964920272859661 15.869743786147865 4 -1 0
1279 160 6 0.19089 2.9613803750770042 7.6606447329122656 20.118626970644275 2 0 -2
1557 195 5 -0.008385 7.94859633742763 3.37117534560046 21.038369501159973 1 2 -1
3204 401 4 -0.488411 4.106153395631996 3.94270921268532 15.542027047024918 -1 0 3
3529 442 1 -0.38353 0.7192873689038767 3.7096167175728048 12.726409852427727 -5 -1 1
3743 468 6 0.19089 11.551518900841412 11.987301129280867 15.943350506430896 -1 0 -1
2534 317 6 0.19089 1.6037193156772989 4.007601617098475 18.54313851408432 2 -2 -1
2144 268 6 0.1559 8.845197814666914 11.540549347918638 16.095106897112238 1 -1 0
2689 337 1 -0.38353 10.682565646579526 2.758973590910991 13.249347898826201 1 0 2
2690 337 2 -0.169515 11.543044033926716 3.728585446257532 13.505745668226613 1 0 2
2246 281 6 0.19089 13.043099559936497 5.528085766923683 11.6312064761924 -1 2 2
2072 259 6 0.1559 1.0921191307689917 8.067036857783709 16.965985085266798 4 -1 0
2138 268 2 -0.169515 8.661576372772059 10.526022801929154 16.42588390761408 1 -1 0
1945 244 1 -0.38353 0.9262972945570169 2.68989720762543 22.117514368068665 -1 0 -2
1814 227 6 0.19089 8.068746079789934 0.9136496603665858 13.676481493656114 -3 0 -2
1278 160 6 0.19089 3.4516508513026185 6.683142227853906 18.657857959467478 2 0 -2
3082 386 2 -0.169515 0.20410668824849468 12.387990344058233 12.500203488920206 0 -1 1
2695 337 6 0.19089 10.922833061972382 1.903156082080346 12.636270783817954 1 0 2
581 73 5 -0.008385 5.387227840624128 0.4894170360202141 17.878955544352443 -3 -2 3
2065 259 1 -0.38353 2.359670236037334 7.438906976767024 15.411884722958941 4 -1 0
3201 401 1 -0.38353 6.080503030897308 5.26653906107113 18.222719420163124 -1 0 3
577 73 1 -0.38353 4.684754103980144 1.1531004517574943 15.442014376832317 -3 -2 3
338 43 2 -0.169515 12.414452455379308 7.5401878509797715 19.240599783767088 0 1 0
2071 259 6 0.19089 3.0774883529287917 7.097278481134698 16.11884188552083 4 -1 0
3209 402 1 -0.38353 11.693257051102655 12.668235312527477 18.759267960914414 0 2 1
3511 439 6 0.19089 14.976609567630533 12.107028175561076 19.26668200333719 2 -1 1
2141 268 5 -0.008385 8.030738153059342 8.511093408149582 15.730229520533793 1 -1 0
3740 468 4 -0.488411 13.055719195977204 11.21986971371532 11.838436631492305 -1 0 -1
1809 227 1 -0.38353 8.249833613413477 0.7580762750129647 14.769470685292651 -3 0 -2
2535 317 6 0.19089 0.7608966043061016 5.584146246359238 18.65624820418592 2 -2 -1
1560 195 6 0.1559 10.431040955006278 1.6461757805191763 21.922545033606685 1 2 -1
3505 439 1 -0.38353 14.837740783860573 11.546080116276391 20.157281006984523 2 -1 1
2784 348 6 0.1559 9.008654617254463 9.464892829083116 22.00742511696835 -2 0 0
646 81 6 0.19089 11.932973980412658 5.810622365771576 21.817549360160836 3 -1 1
1171 147 3 0.512161 15.070856496554851 7.101870071079973 16.04760757086712 0 -1 0
2783 348 6 0.19089 6.9274236107899245 8.249035016527282 21.913521763273614 -2 0 0
3064 383 6 0.1559 9.7271217497897 12.676327783551185 21.886737473838906 -2 3 3
3825 479 1 -0.38353 8.60311577196321 1.63625631893398 26.10717539172328 4 1 1
546 69 2 -0.169515 5.540647823130736 11.492390123302402 26.305895451162964 -2 2 1
1317 165 5 -0.008385 5.546119657996486 4.461924661337611 31.574094911724792 3 2 -1
1281 161 1 -0.38353 13.658668546107597 10.2659022168317 28.141279067373524 -2 0 1
3663 458 6 0.19089 6.56895219145432 2.8209671441411395 24.700397741959268 -1 1 0
1990 249 6 0.19089 10.03808259872034 12.497020757061874 29.603307301650286 -1 -1 0
3664 458 6 0.1559 4.814237962087934 4.45177052274951 25.17459126934469 -1 1 0
1785 224 1 -0.38353 14.898348460711954 1.2097093201093523 32.40278337702852 2 2 -1
2782 348 6 0.19089 6.484447034888524 8.879268771226752 23.607665191953743 -2 0 0
544 68 6 0.1559 1.026479661844709 2.106874540754722 28.056987250284145 0 0 1
2060 258 4 -0.488411 0.6457087199711887 7.250067640019582 31.655436515935293 2 2 0
945 119 1 -0.38353 14.436588028339765 7.057014614231923 25.052436301821988 0 2 -1
1168 146 6 0.1559 6.7068354147340905 8.945103391647873 29.62321103814214 0 2 -1
741 93 5 -0.008385 11.010844649188021 4.31034141278389 29.02387409611172 2 -1 -1
2552 319 6 0.1559 5.571478048089993 1.2746359148006647 29.763976574738376 -2 0 -1
442 56 2 -0.169515 0.5202434029464199 8.991376392281097 27.161176699639014 0 1 -2
1167 146 6 0.19089 4.480229711378359 9.516629077844522 28.867249267865112 0 2 -1
542 68 6 0.19089 2.969712526778483 2.748502028888637 30.293810608737605 0 0 1
2546 319 2 -0.169515 5.7166292149610545 0.7276125241871825 28.86352002457072 -2 0 -1
948 119 4 -0.488411 12.544326850450597 10.121914279773913 25.043095081370755 0 2 -1
539 68 3 0.512161 1.0670390076450866 4.223235078057685 28.897207247749492 0 0 1
1992 249 6 0.1559 9.530442829967706 12.247372416531643 32.6871708237937 -1 -1 0
324 41 4 -0.488411 0.6628123453963451 0.10341623506985373 32.01561484098754 -3 1 -2
3397 425 5 -0.008385 4.110375863408394 6.9966098410465305 23.77648609645065 1 1 2
2870 359 6 0.19089 13.918419718050279 0.1803386920357224 30.00403354345937 2 1 -1
2781 348 5 -0.008385 7.833383502247813 10.579316175122644 24.677144088773854 -2 0 0
1582 198 6 0.19089 8.648960189325697 0.4639239010627444 29.209652712218812 3 2 -2
3520 440 6 0.1559 3.1948325714335724 12.70743063489533 26.389064186466303 1 -2 0
1577 198 1 -0.38353 9.119756308734571 1.103120856361568 29.994549017337075 3 2 -2
2376 297 6 0.1559 12.066074135638058 7.599930880341781 32.841475689244305 -1 1 1
3831 479 6 0.19089 8.431824725196904 1.993235029345007 27.171962722512184 4 1 1
2869 359 5 -0.008385 14.06985911380113 0.6986987647619567 27.56071347216117 2 1 -1
1985 249 1 -0.38353 10.178407199054925 12.524006533106727 30.69859211762608 -1 -1 0
950 119 6 0.19089 14.722546881702494 7.027066436173878 24.057541409029277 0 2 -1
3830 479 6 0.19089 7.767186275386769 1.4498250435683944 25.44174130255113 4 1 1
2375 297 6 0.19089 13.73623339612156 8.790977261652433 31.340447483122286 -1 1 1
737 93 1 -0.38353 10.316121679592461 6.707443673421207 30.037413516844158 2 -1 -1
688 86 6 0.1559 11.155256071976774 3.7144345206828397 32.72518273140272 -1 2 -1