LAMMPS data file via write_data, version 29 Sep 2021, timestep = 1000000

4096 atoms
8 atom types
3584 bonds
6 bond types
4608 angles
8 angle types
4096 dihedrals
6 dihedral types
1536 impropers
3 improper types

0 29.0995366 xlo xhi
0 37.183529 ylo yhi
0 42.95514399 zlo zhi
-0.0100591125099978 -0.0617010042405149 0.0346948157243815 xy xz yz

Masses

1 12.01
2 12.01
3 12.01
4 16
5 1.008
6 1.008
7 0.001
8 0.001

#Pair Coeffs # lj/cut/coul/long

#1 0.086 3.39967
#2 0.086 3.39967
#3 0.086 3.39967
#4 0.21 2.95992
#5 0.015 2.51055
#6 0.015 2.59964

Bond Coeffs # harmonic

1 343.1 1.088
2 547.3 1.346
3 342.5 1.088
4 354.5 1.482
5 310.7 1.112
6 637.7 1.218

Angle Coeffs # harmonic

1 49.6 119.94
2 65.5 120.42
3 38.1 116.9
4 49.5 120.45
5 46.7 114.89
6 68.8 123.2
7 46.5 116.46
8 54.2 120.7

Dihedral Coeffs # charmm

1 2.175 2 180 0
2 2.175 2 180 0
3 6.65 2 180 0
4 6.65 2 180 0
5 2.175 2 180 0
6 2.175 2 180 0

Improper Coeffs # cvff

1 10.5 -1 2
2 1.1 -1 2
3 1.1 -1 2

Atoms # full

3108 389 4 -0.488411 10.105927466311059 9.615087412484339 1.6783172162204945 0 0 1
3124 391 4 -0.488411 8.604328894068823 13.932950700305966 1.8246808445882698 0 0 1
3892 487 4 -0.488411 8.16577948113736 5.033501008529059 2.3942593783750996 0 1 1
3083 386 3 0.512161 4.988146810723224 13.894260367188007 1.794094912227764 0 0 1
3147 394 3 0.512161 12.205534564819882 13.75877612767134 1.4911632551692025 0 0 1
3915 490 3 0.512161 12.118793595049942 4.351448677141593 1.1594816751057513 0 1 1
3085 386 5 -0.008385 5.530292830375151 14.465638468312395 1.045206779562934 0 0 1
3418 428 2 -0.169515 14.287289617943165 17.618716266051344 1.4517878822921597 0 0 1
3852 482 4 -0.488411 4.450113999422115 4.542885064275753 2.6360352560659495 0 1 1
3148 394 4 -0.488411 12.025733109966264 14.154442454949342 2.616112065200789 0 0 1
3300 413 4 -0.488411 2.7455618026541906 9.520615545851488 2.121629775787994 1 0 1
3099 388 3 0.512161 6.588101497480341 8.706389686712425 1.8689601603317814 0 0 1
40 5 6 0.1559 11.021492030220255 7.516431720959613 13.167629241798764 0 0 0
3122 391 2 -0.169515 8.083250706983065 12.197667424109731 3.4270486032160448 0 0 1
3123 391 3 0.512161 8.866635063041464 13.36553016674029 2.8993976980048446 0 0 1
3128 391 6 0.1559 7.461073179787357 11.662020062964517 2.6897562001661837 0 0 1
3891 487 3 0.512161 8.459056210679536 4.495896210348196 3.4172956432991475 0 1 1
3896 487 6 0.1559 7.320468862841354 2.6371222815334763 2.889220787910487 0 1 1
3107 389 3 0.512161 10.102706532045955 9.121746333788407 2.7752648428393885 0 0 1
3125 391 5 -0.008385 9.710516295326975 13.774754712445523 3.5229845986568478 0 0 1
3299 413 3 0.512161 2.5848169940129724 8.932939881081015 3.21773815321025 1 0 1
3100 388 4 -0.488411 6.218087960502136 9.372658988840492 2.8100396707971536 0 0 1
3084 386 4 -0.488411 4.9147142573954365 14.222220243816212 2.9792560837354136 0 0 1
3916 490 4 -0.488411 12.682903555860848 4.636039607565052 2.2154525584685874 0 1 1
3301 413 5 -0.008385 2.1240082550145765 9.462283944708608 4.090857049013515 1 0 1
1013 127 5 -0.008385 0.47043343627269213 2.7935607299562064 13.381199744717831 1 1 0
3112 389 6 0.1559 11.187285852760516 7.347248669161006 2.116623245364768 0 0 1
3109 389 5 -0.008385 9.842400815792557 9.739806002397474 3.6740416732646635 0 0 1
3890 487 2 -0.169515 7.896683682452583 3.115715848589399 3.6707639959069907 0 1 1
3106 389 2 -0.169515 10.761048857256966 7.815057374808857 3.0044565869972373 0 0 1
3298 413 2 -0.169515 3.1422410397743357 7.532427809754828 3.440633708982322 1 0 1
3554 445 2 -0.169515 3.243428779031776 17.20273196934301 3.2323561877665297 1 0 1
3560 445 6 0.1559 3.782678210113885 16.772179889451646 2.397370965338551 1 0 1
3893 487 5 -0.008385 9.053625475800036 5.011859241359961 4.215086758944438 0 1 1
127 16 6 0.19089 13.795426997822407 6.651813326214887 4.18004606575864 0 0 0
815 102 6 0.19089 4.033372168609832 2.7630893348068075 4.549477406945039 0 1 0
319 40 6 0.19089 7.645576777685584 17.23199647832041 4.3028708168510255 0 0 0
3553 445 1 -0.38353 3.4485612053453125 16.78169345355258 4.4797653929566374 1 0 1
110 14 6 0.19089 12.484903335396218 10.24244772138078 4.152493647116914 0 0 0
111 14 6 0.19089 12.260166831236806 12.134852124635598 4.434157307577655 0 0 0
3361 421 1 -0.38353 10.437261007655799 17.113053357597273 4.662885182086507 0 0 1
46 6 6 0.19089 5.010998955927841 11.112890847727947 4.365500981303778 0 0 0
62 8 6 0.19089 6.23177799290528 6.0473648864238205 4.197724143052853 0 0 0
63 8 6 0.19089 6.699409736221541 7.686729597053868 4.93667090347841 0 0 0
3889 487 1 -0.38353 8.045524354873269 2.4973530382720903 4.85422752210654 0 1 1
879 110 6 0.19089 11.471610522386682 3.1942514797005623 4.768012555835874 0 1 0
3121 391 1 -0.38353 8.181793537251131 11.671188978062832 4.684070957249156 0 0 1
3105 389 1 -0.38353 10.844854642371917 7.261144772642568 4.2222769857918365 0 0 1
3111 389 6 0.19089 11.16654735552967 6.238667866807927 4.375012487379566 0 0 1
3110 389 6 0.19089 10.43123574037838 7.751925871747582 5.10589835611771 0 0 1
47 6 6 0.19089 4.33082123366428 12.658989294382177 5.02078513404604 0 0 0
3297 413 1 -0.38353 3.096155830019986 6.907660342686265 4.667539699753365 1 0 1
41 6 1 -0.38353 4.532106354762223 11.675233184214699 5.213607630509427 0 0 0
313 40 1 -0.38353 7.143125433213338 16.319574220515147 4.623307138200355 0 0 0
873 110 1 -0.38353 11.904489796880595 2.263659269216488 5.260601004448855 0 1 0
105 14 1 -0.38353 12.313114219509512 11.100824133003968 4.822124401895013 0 0 0
3127 391 6 0.19089 7.6476096720919955 10.804650787915225 5.0448935835179585 0 0 1
3559 445 6 0.19089 4.165111695745155 16.015557412999346 4.744430916317259 1 0 1
3303 413 6 0.19089 3.4232138807872396 5.881974562303574 4.779261729852558 1 0 1
382 48 6 0.19089 14.494276171287558 14.84443787781814 4.361206494772713 0 0 0
318 40 6 0.19089 6.541854408416846 15.725384210035543 3.9568548236773795 0 0 0
57 8 1 -0.38353 6.534801647330293 6.630520634956659 5.055641058852382 0 0 0
809 102 1 -0.38353 4.5189995018520595 1.8909361762386752 4.918682856694922 0 1 0
3126 391 6 0.19089 8.849445623252164 12.128314062440076 5.459729268716626 0 0 1
3894 487 6 0.19089 8.69301913530957 2.8884538303626415 5.6260460457457535 0 1 1
3302 413 6 0.19089 2.7823967890930814 7.380017010102914 5.59823680488161 1 0 1
3367 421 6 0.19089 10.072213980376214 17.41867651234831 5.63111739345995 0 0 1
314 40 2 -0.169515 7.335252356121728 15.933789502690926 5.927884967714047 0 0 0
106 14 2 -0.169515 12.094182459925712 10.847343708980304 6.130056056797763 0 0 0
810 102 2 -0.169515 4.414216067411076 1.556011179596186 6.218819178180715 0 1 0
61 8 5 -0.008385 5.9705271627197485 4.074517133658879 5.781096740284484 0 0 0
42 6 2 -0.169515 4.178244797351604 11.142750379191153 6.3901431625566945 0 0 0
58 8 2 -0.169515 6.620629805865395 6.0875836903554905 6.28027198662828 0 0 0
112 14 6 0.1559 11.933307453054931 11.69698902624872 6.823448650309309 0 0 0
48 6 6 0.1559 3.689500638959638 11.790822549081524 7.081002464531623 0 0 0
787 99 3 0.512161 8.236910243940654 0.941591513912467 7.967109481837081 0 1 0
317 40 5 -0.008385 6.180908631666491 14.01764943256821 5.628991381816669 0 0 0
3856 482 6 0.1559 4.182173485199032 2.1269694265009846 1.7695309640285313 0 1 1
3355 420 3 0.512161 6.15027771066779 18.313945213656602 1.425356182560143 0 0 1
877 110 5 -0.008385 13.248087941283732 0.27730942856199464 6.555025865069687 0 1 0
251 32 3 0.512161 0.0031741771080395394 5.747870130543689 7.086673689301179 1 0 0
380 48 4 -0.488411 13.6627398610532 13.42907003228135 7.930881198336535 0 0 0
3088 386 6 0.1559 3.824975777268858 11.934905475447309 1.9271759053036883 0 0 1
3304 413 6 0.1559 3.4679860771735593 7.075545345055865 2.5786273326320117 1 0 1
254 32 6 0.19089 0.41533224498123256 7.3086439455018954 4.898498527222437 1 0 0
4088 511 6 0.1559 0.7117446643597768 2.356320365221272 2.5280050979095323 1 1 1
227 29 3 0.512161 2.828284258850511 8.626530744029756 13.976166546514134 1 0 0
244 31 4 -0.488411 1.9151924254960915 14.275036006722864 12.540881180019364 1 0 0
3082 386 2 -0.169515 4.377330752337421 12.67163239176885 1.2422286429679197 0 0 1
3895 487 6 0.19089 7.591081068924309 1.5725402382817963 5.090974733427041 0 1 1
3862 483 6 0.19089 8.926507912505462 2.0255531241724336 0.6133933262026566 0 1 1
109 14 5 -0.008385 12.4148192516754 8.653002752282516 6.114305411835562 0 0 0
320 40 6 0.1559 7.864226724810736 16.565570639979946 6.650279273460346 0 0 0
874 110 2 -0.169515 11.86867126423758 2.0185339394796715 6.551760509079068 0 1 0
125 16 5 -0.008385 14.020480335664574 3.8774652461633767 6.680727143415444 0 0 0
64 8 6 0.1559 6.945822694803276 6.679926636094232 7.11028103170668 0 0 0
315 40 3 0.512161 6.786297178184092 14.596405281560076 6.380094580226252 0 0 0
260 33 4 -0.488411 10.43682528788006 14.263627190377342 6.607917129243552 0 0 0
20 3 4 -0.488411 8.70104702434601 9.39238777103258 7.250272576674746 0 0 0
196 25 4 -0.488411 3.2884011930239785 4.668438310261522 7.417594356569056 1 0 0
4 1 4 -0.488411 9.932137861193011 5.065127290437248 6.70282702939177 0 0 0
59 8 3 0.512161 6.308902041938552 4.686403511214968 6.6074347792246275 0 0 0
1012 127 4 -0.488411 1.6557934886002295 4.198863021741091 12.558082797660965 1 1 0
45 6 5 -0.008385 4.989339725978529 9.114872545969206 6.010281875675669 0 0 0
43 6 3 0.512161 4.503118615704613 9.73320206431291 6.731049022264188 0 0 0
107 14 3 0.512161 12.129293760429258 9.515860224375063 6.777688722646769 0 0 0
286 36 6 0.19089 6.4653061341838525 16.919113152450514 9.598371087711959 0 0 0
24 3 6 0.1559 7.949726387726959 11.860658797930014 7.575281383215288 0 0 0
19 3 3 0.512161 8.760135647288296 9.947454227084094 8.334918941158547 0 0 0
264 33 6 0.1559 11.328047049723642 16.466192146980966 7.532208077054234 0 0 0
452 57 4 -0.488411 3.328591498392048 14.326566012677846 6.821494184852563 1 0 0
259 33 3 0.512161 10.580263137210277 14.543181575406035 7.769510707253462 0 0 0
195 25 3 0.512161 3.1247632655635127 4.79433294764486 8.605315088611377 1 0 0
456 57 6 0.1559 2.7725179336799513 14.038279666037447 9.363366717220737 1 0 0
44 6 4 -0.488411 4.210064490606321 9.286986176757845 7.8029421510151025 0 0 0
108 14 4 -0.488411 11.881259898276822 9.292520665182781 7.924628470941632 0 0 0
316 40 4 -0.488411 6.753508642025312 14.248219129635915 7.548365627738486 0 0 0
451 57 3 0.512161 3.3528239967041524 15.201652753373846 7.634239824084141 1 0 0
3 1 3 0.512161 10.079920295355953 5.203208773404172 7.924318858140209 0 0 0
60 8 4 -0.488411 6.64468540813004 4.180717359200507 7.717933314603928 0 0 0
8 1 6 0.1559 10.351973981147353 7.305006038372861 7.914320277622253 0 0 0
3146 394 2 -0.169515 11.582941849346243 12.524158350656762 0.9036287490753288 0 0 1
258 33 2 -0.169515 11.02154999564081 15.818763254871302 8.270751056371234 0 0 0
2 1 2 -0.169515 10.172463485038264 6.5316705415057665 8.622592836678152 0 0 0
786 99 2 -0.169515 8.891872272307149 1.0811988633560263 9.302299874853869 0 1 0
194 25 2 -0.169515 3.315251892842641 6.166558834179158 9.125952455846011 1 0 0
197 25 5 -0.008385 3.0131331200926597 3.9083485694229037 9.296085659113746 1 0 0
978 123 2 -0.169515 1.1383655626482527 1.51047442307392 8.673274372563565 1 1 0
3164 396 4 -0.488411 13.69353257016725 8.920667053181658 2.5992476929281927 0 0 1
261 33 5 -0.008385 10.29021427385882 13.791571861575235 8.572225693575106 0 0 0
450 57 2 -0.169515 3.182799761691283 14.998371814354396 9.075786894096643 1 0 0
18 3 2 -0.169515 8.356396309464568 11.360068054242396 8.461565166173536 0 0 0
21 3 5 -0.008385 9.189399298316696 9.395894789589244 9.18575888828101 0 0 0
453 57 5 -0.008385 3.7848466153350717 16.201672035211754 7.339463120431981 1 0 0
31 4 6 0.19089 7.182243837105608 6.689844620928935 9.221899434026877 0 0 0
783 98 6 0.19089 4.5902096740862195 1.4054346358282093 10.20901891406851 0 1 0
14 2 6 0.19089 5.201816145924749 12.954248880553333 9.55356993058176 0 0 0
257 33 1 -0.38353 11.050366135421225 16.19029518840286 9.54241417688589 0 0 0
198 25 6 0.19089 3.5416104161217157 5.809387763542498 11.258731278880756 1 0 0
292 37 4 -0.488411 10.602010204758779 18.51876467051418 11.965033390046996 0 0 0
5 1 5 -0.008385 10.018322635022047 4.32264521178992 8.515206811977418 0 0 0
51 7 3 0.512161 8.335907610811695 13.495572260967942 13.441144136117863 0 0 0
78 10 6 0.19089 11.159356533416863 10.9497848150554 10.672729852561107 0 0 0
17 3 1 -0.38353 8.290547130708365 11.970291573523342 9.70409420488882 0 0 0
79 10 6 0.19089 12.100979064335151 11.780710636685733 9.27630913276594 0 0 0
287 36 6 0.19089 7.14431279070675 15.304914517870431 10.38678583848847 0 0 0
15 2 6 0.19089 4.658854754759353 11.103798509464452 9.559518881408755 0 0 0
1 1 1 -0.38353 10.402079205886034 6.649502850529512 9.99819993732874 0 0 0
73 10 1 -0.38353 11.766344600123567 11.781284594673187 10.305978305696957 0 0 0
9 2 1 -0.38353 4.973238818305318 12.047280731045271 10.121402612080344 0 0 0
7 1 6 0.19089 10.57060820929726 7.643920172721292 10.425208366938977 0 0 0
846 106 6 0.19089 12.832299728393236 3.2023896375135292 9.930603477200089 0 1 0
785 99 1 -0.38353 8.666316932023726 2.1675031420204296 10.04628362790689 0 1 0
378 48 2 -0.169515 14.492196334387213 15.191206548523631 6.518725299068072 0 0 0
3920 490 6 0.1559 11.679750155564086 2.196617278716397 1.504739688459648 0 1 1
782 98 6 0.19089 5.126164029662402 3.0975511395653057 9.656574017260295 0 1 0
281 36 1 -0.38353 6.878638598491423 16.357655120168207 10.43803871604491 0 0 0
209 27 1 -0.38353 1.6597032967644472 11.19706817568973 10.630535978202504 1 0 0
3094 387 6 0.19089 8.765257233015872 10.89104778363561 0.06264295886652192 0 0 1
218 28 2 -0.169515 0.03829023212382669 7.207847654998689 11.85704007136656 1 0 0
346 44 2 -0.169515 14.123543937001388 16.696303413796613 11.603533320646553 0 0 0
469 59 5 -0.008385 1.6340472788044553 17.998334318230906 9.45788706688597 1 0 0
3320 415 6 0.1559 0.8268355942454533 11.99092330727298 2.2936773776319996 1 0 1
3286 411 6 0.19089 1.018805708255764 10.765380498764896 0.3815158360210998 1 0 1
482 61 2 -0.169515 3.287732453814887 17.434294249657423 13.769294869635647 1 0 0
3365 421 5 -0.008385 10.885493252371205 16.435278307047135 2.0737381031587874 0 0 1
199 25 6 0.19089 3.4986619810905455 7.5315539828858515 10.679565666659622 1 0 0
847 106 6 0.19089 11.544553441870216 2.1045390373772155 10.548602192399306 0 1 0
449 57 1 -0.38353 3.513057963167859 15.94503727238264 9.99715573681031 1 0 0
23 3 6 0.19089 7.7946767180880565 12.932945790503474 9.780804218893644 0 0 0
193 25 1 -0.38353 3.492907583775694 6.50608130465353 10.422677439218889 1 0 0
25 4 1 -0.38353 6.696331807248969 7.419823899823112 9.826431653679704 0 0 0
454 57 6 0.19089 3.8165407322334763 16.986168665406716 9.748534521990557 1 0 0
30 4 6 0.19089 5.8232333177938065 7.865577068227516 9.441741349707549 0 0 0
6 1 6 0.19089 10.293764781038737 5.816961882684809 10.634534851111324 0 0 0
841 106 1 -0.38353 12.13069367680678 2.974751894694778 10.737276790927059 0 1 0
263 33 6 0.19089 11.398187713643269 17.163685498944286 9.80355638200468 0 0 0
22 3 6 0.19089 8.513304324946727 11.520769474876037 10.66178465665604 0 0 0
777 98 1 -0.38353 4.866910689914397 2.43714925935652 10.449367445808033 0 1 0
455 57 6 0.19089 3.398012755515274 15.828099105642615 11.079131694295878 1 0 0
3851 482 3 0.512161 4.416100127171848 4.3122466729648945 1.4490279683925438 0 1 1
200 25 6 0.1559 3.2631200546045314 6.894138794873835 8.34389272271591 1 0 0
3877 485 5 -0.008385 9.743064872479726 0.29965530178137606 4.121048619051823 0 1 1
876 110 4 -0.488411 12.614553510612085 0.7065311813564948 8.440439433891108 0 1 0
288 36 6 0.1559 7.3364514557057605 16.493376221675966 12.484301796868563 0 0 0
468 59 4 -0.488411 1.4697063288081849 17.835881281745294 7.463906326557618 1 0 0
4087 511 6 0.19089 1.615996773605303 2.2579761789297215 4.844506679891616 1 1 1
3363 421 3 0.512161 10.535825459615221 17.483983019229246 2.2037812525332017 0 0 1
350 44 6 0.19089 14.270016352724125 16.96293394744184 9.486746523959319 0 0 0
792 99 6 0.1559 9.573936875137175 0.27558938765308055 9.692267673327192 0 1 0
3315 415 3 0.512161 1.635502207345028 13.909808314270798 2.7412244354989146 1 0 1
3853 482 5 -0.008385 4.616438218388086 5.088224462296357 0.7211143588094856 0 1 1
248 31 6 0.1559 0.5713759525911455 12.187525468914588 13.18224145773348 1 0 0
3318 415 6 0.19089 1.285771158145766 12.597593967006533 5.283917582876174 1 0 1
262 33 6 0.19089 10.692887583748456 15.53592802681085 10.400860862986494 0 0 0
13 2 5 -0.008385 5.1721874074897185 14.419841718622536 11.366626978223167 0 0 0
3162 396 2 -0.169515 14.025445176060487 7.516580842724244 0.718722859198048 0 0 1
3098 388 2 -0.169515 6.109471142689786 8.880719597422045 0.5030538570199443 0 0 1
32 4 6 0.1559 7.936541340861336 7.097964484334428 11.4612999364586 0 0 0
26 4 2 -0.169515 7.167880107636826 7.717265136630732 11.06461224022687 0 0 0
778 98 2 -0.169515 4.988501777591433 2.8353329173818476 11.722309402483786 0 1 0
784 98 6 0.1559 4.698860194740638 2.2438424576530367 12.560512459636033 0 1 0
10 2 2 -0.169515 4.743940373796587 12.24121919705597 11.467202842844541 0 0 0
842 106 2 -0.169515 11.884127240431019 3.70336928249995 11.880548211984564 0 1 0
77 10 5 -0.008385 10.92201500948886 12.144018543424675 12.792351913128018 0 0 0
845 106 5 -0.008385 13.2781949241156 5.397136103796506 11.437733179414948 0 1 0
74 10 2 -0.169515 11.99588321763553 12.869029058016707 11.008660453797697 0 0 0
843 106 3 0.512161 12.629483360673897 4.95767908179769 12.251446123905986 0 1 0
282 36 2 -0.169515 7.037363867412571 17.040225804122212 11.606867611136675 0 0 0
16 2 6 0.1559 4.411563003896314 11.414173012233157 12.089662730962477 0 0 0
296 37 6 0.1559 9.46089964164431 18.557884055567925 14.236306882245785 0 0 0
75 10 3 0.512161 11.575407844878766 12.97784469866367 12.424861065183727 0 0 0
11 2 3 0.512161 5.071028613391498 13.580134876502262 12.093867644943183 0 0 0
3317 415 5 -0.008385 2.0825143838944906 14.47017228700169 3.55779678828786 1 0 1
27 4 3 0.512161 6.475381237693899 8.602857250133663 12.014344137679233 0 0 0
80 10 6 0.1559 12.58200074853834 13.724652020061523 10.632534783970625 0 0 0
779 98 3 0.512161 5.500877186066404 4.171148092441314 12.065326810406942 0 1 0
29 4 5 -0.008385 5.580640922056558 9.140293414951408 11.603794344493515 0 0 0
781 98 5 -0.008385 5.950050883718015 4.761097338970008 11.205296334305338 0 1 0
228 29 4 -0.488411 3.081961346249421 9.199077605260067 12.944568162477207 1 0 0
36 5 4 -0.488411 9.896450215997968 9.821358728680142 12.38506620455074 0 0 0
52 7 4 -0.488411 8.356820522542824 13.834231409341879 12.30266184416075 0 0 0
3850 482 2 -0.169515 4.255739305582563 2.9049418553996524 1.0058682358571964 0 1 1
3270 409 6 0.19089 2.408825371130916 6.701746575214974 0.4693327032268162 1 0 1
3152 394 6 0.1559 10.870720136056361 12.004868692340459 1.5041559344142708 0 0 1
3354 420 2 -0.169515 6.737921275281877 17.03686586301169 0.9041944809301714 0 0 1
56 7 6 0.1559 7.222731134540219 11.573109005587161 13.07804749258684 0 0 0
91 12 3 0.512161 14.348804777425832 8.66736318951266 12.672742454775994 0 0 0
983 123 6 0.19089 0.6554617198727748 3.003642848427331 10.111031869850308 1 1 0
979 123 3 0.512161 1.477782221069316 0.08088173873791034 8.408985738563214 1 1 0
126 16 6 0.19089 13.522624343177583 4.838105171842726 4.433359477589199 0 0 0
379 48 3 0.512161 13.84847575052638 13.860976763152019 6.769417588752332 0 0 0
820 103 4 -0.488411 8.637232565309192 4.712028407040537 12.723619601838367 0 1 0
848 106 6 0.1559 11.21992941651528 3.3704901841243986 12.670417930527769 0 1 0
982 123 6 0.19089 1.140321076527652 1.3943677497181146 10.77822918294835 1 1 0
811 102 3 0.512161 4.938214570913559 0.2999449233160645 6.7728221464127225 0 1 0
875 110 3 0.512161 12.548686461914947 0.8561257552428587 7.233281166998331 0 1 0
291 37 3 0.512161 10.75653527653893 17.63554320001666 12.790416958794811 0 0 0
791 99 6 0.19089 9.117555882740781 2.287091216615199 11.024214875201686 0 1 0
124 16 4 -0.488411 14.142610165814212 5.0093719238939265 8.393501289614635 0 0 0
224 28 6 0.1559 0.5060937443349539 6.578760828604729 12.617279953862457 1 0 0
300 38 4 -0.488411 5.1810962925741855 18.51279279153032 8.22532047247458 0 0 0
4081 511 1 -0.38353 1.5257782132072064 3.213880741613553 4.31511059280727 1 1 1
819 103 3 0.512161 8.887195769645883 4.111673327475045 13.715744685328087 0 1 0
3527 441 6 0.19089 2.3311030242557997 16.45924691020206 0.2658879123172153 1 0 1
3101 388 5 -0.008385 7.452385916276437 8.03211872536268 1.9382984552488551 0 0 1
3313 415 1 -0.38353 0.9532794394801392 12.105689264888639 4.402180636575409 1 0 1
977 123 1 -0.38353 1.0680162909273494 2.050732306328254 9.891794786449461 1 1 0
3362 421 2 -0.169515 10.18693413329056 17.931108378354562 3.5978344379444374 0 0 1
984 123 6 0.1559 0.9929979411773988 2.16032414512243 7.808024298092481 1 1 0
4068 509 4 -0.488411 2.794151108166209 0.12896139053141245 2.5939295590387728 1 1 1
89 12 1 -0.38353 13.806366924830446 8.020039303511739 10.358278807979378 0 0 0
94 12 6 0.19089 14.148259613657928 6.963172488540432 10.450240016424809 0 0 0
76 10 4 -0.488411 11.85121269888049 13.93254893461543 13.133819195039809 0 0 0
4083 511 3 0.512161 1.1263782560216815 4.537164795775092 2.23529447590506 1 1 1
814 102 6 0.19089 4.951086089730238 1.168610733437714 4.156943921432095 0 1 0
211 27 3 0.512161 1.1997736676997983 10.27052956961809 8.386635351126525 1 0 0
223 28 6 0.19089 0.5819565224760516 6.025875843149843 10.17269776747406 1 0 0
4054 507 6 0.19089 1.820869211705634 0.9642709893859931 0.1436571799258103 1 1 1
467 59 3 0.512161 1.314119109146488 18.39475293316375 8.51276400749354 1 0 0
92 12 4 -0.488411 14.275028086463825 9.426375169423043 13.649969148977936 0 0 0
121 16 1 -0.38353 13.742600997025033 5.843370647784044 4.8660202800402494 0 0 0
210 27 2 -0.169515 1.5310771727093522 10.120077797569701 9.834403357411544 1 0 0
3869 484 5 -0.008385 6.349006834710733 0.7999547288700594 1.341354339087696 0 1 1
3360 420 6 0.1559 7.31374133680684 16.487912671852804 1.6202916588984793 0 0 1
880 110 6 0.1559 11.389159584400321 2.6868368368877116 7.208768820151923 0 1 0
789 99 5 -0.008385 7.612802760549059 1.8051207218046814 7.657399445567728 0 1 0
3366 421 6 0.19089 10.981398229724881 16.19048134952039 4.575899092842672 0 0 1
34 5 2 -0.169515 10.483818909675662 8.071920467350518 13.919490016721895 0 0 0
816 102 6 0.1559 3.9328040108226765 2.1990192845731693 6.982130576378319 0 1 0
790 99 6 0.19089 7.978291801352988 2.925639394545126 9.72413413936638 0 1 0
3558 445 6 0.19089 2.8654758204597837 17.199162910183713 5.301746467615764 1 0 1
12 2 4 -0.488411 5.087278907185129 13.720048997695852 13.320574098549786 0 0 0
123 16 3 0.512161 14.08275839143196 4.900919291608316 7.160340611561729 0 0 0
253 32 5 -0.008385 0.7535688878150871 6.609607368426038 7.211224953450827 1 0 0
216 27 6 0.1559 1.7548937993533247 9.097219919736027 10.151285893780392 1 0 0
3914 490 2 -0.169515 11.673777084176526 2.9739352661272522 0.7992965892180923 0 1 1
214 27 6 0.19089 1.4922985594518325 12.21406355381808 10.311013801122698 1 0 0
1011 127 3 0.512161 1.3703115186587436 3.4410351151364207 13.449058971546565 1 1 0
818 103 2 -0.169515 8.224090477088483 2.844905417676243 14.084117537130085 0 1 0
212 27 4 -0.488411 1.0699429822462825 9.250763871876897 7.692863680915412 1 0 0
878 110 6 0.19089 12.414527139568115 1.6204978577984852 4.5626866956263346 0 1 0
4086 511 6 0.19089 1.9078362201261883 4.0161977141956875 4.917220607460874 1 1 1
3876 485 4 -0.488411 10.01152457963796 0.11813311547811628 2.1327829357130685 0 1 1
3163 396 3 0.512161 13.558123934143024 8.788745313294022 1.4099857254075676 0 0 1
35 5 3 0.512161 9.79854031780547 9.303688526567276 13.503400494106389 0 0 0
797 100 5 -0.008385 6.087694293853703 0.10106016226179952 10.862822524121636 0 1 0
283 36 3 0.512161 6.759075256399773 18.488912673361234 11.83037304624703 0 0 0
3149 394 5 -0.008385 12.92816620764981 14.362173281745834 0.8433345684236382 0 0 1
3319 415 6 0.19089 0.507742826471011 11.056215185514422 4.59644312425867 1 0 1
780 98 4 -0.488411 5.456592897005169 4.553301979017201 13.236233719391016 0 1 0
293 37 5 -0.008385 11.336033027932556 16.659288730049433 12.55147582826702 0 0 0
4084 511 4 -0.488411 0.9126899283838021 4.536080826987495 1.0520848675731418 1 1 1
96 12 6 0.1559 13.482670443919567 9.969309957053868 11.132009292241902 0 0 0
3165 396 5 -0.008385 13.052877561754785 9.507753231335593 0.7220850269044353 0 0 1
28 4 4 -0.488411 6.807800271433014 8.718706494018669 13.201826178306865 0 0 0
3316 415 4 -0.488411 1.7307524451473137 14.235932859059421 1.5478057782391434 1 0 1
351 44 6 0.19089 14.458241546969457 15.222585204497193 10.133715753106278 0 0 0
4082 511 2 -0.169515 1.0364165926589886 3.2688064201263223 3.037036479590208 1 1 1
3314 415 2 -0.169515 1.0991939906258748 12.592603112506383 3.126418303716809 1 0 1
122 16 2 -0.169515 13.922001036228073 6.06866502560494 6.234857026102604 0 0 0
352 44 6 0.1559 14.160498637622846 15.983898752366022 12.43939057209068 0 0 0
243 31 3 0.512161 2.004459041209683 13.710223000530998 13.629974645804777 1 0 0
3168 396 6 0.1559 14.45547050722276 6.8389207101426726 1.4480327994179283 0 0 1
3424 428 6 0.1559 14.12751821243088 16.65886605727469 1.8120334939497595 0 0 1
215 27 6 0.19089 1.998341020690952 11.08207200570193 11.649004802501375 1 0 0
232 29 6 0.1559 4.363616929750946 6.982285432583131 13.719009033734775 1 0 0
844 106 4 -0.488411 12.57965358068617 5.519172439683581 13.30990804008718 0 1 0
4085 511 5 -0.008385 1.5036352362959484 5.455913605186922 2.798771836280819 1 1 1
381 48 5 -0.008385 13.571405886474606 13.258697180794115 5.897743282491352 0 0 0
90 12 2 -0.169515 13.883741381203526 8.979114384554116 11.288596707234323 0 0 0
95 12 6 0.19089 13.322193425942574 8.28951734085144 9.398718575552758 0 0 0
488 61 6 0.1559 3.759196943969406 16.58077556810167 13.212753801755317 1 0 0
242 31 2 -0.169515 1.2099272758623827 12.503349507976525 13.959392077450948 1 0 0
347 44 3 0.512161 13.859774180576952 18.116729925679657 11.91602838005876 0 0 0
509 64 5 -0.008385 0.15070648930841013 15.517874676563146 8.419052497259726 1 0 0
3417 428 1 -0.38353 14.150448976249386 17.809678142307266 0.1349399427489414 0 0 1
824 103 6 0.1559 7.391676315195555 2.600320394654885 13.489410177707999 0 1 0
213 27 5 -0.008385 1.0432321254194001 11.320683120488718 7.951322531005663 1 0 0
3555 445 3 0.512161 2.3248102079945134 18.26211901168784 2.8340124532614333 1 0 1
3917 490 5 -0.008385 12.155124005314384 5.151055350885759 0.33221557147277114 0 1 1
290 37 2 -0.169515 10.128732790512085 17.737792313934598 14.090482143365795 0 0 0
3104 388 6 0.1559 5.42034508298357 9.724374144447228 0.36751697463639976 0 0 1
128 16 6 0.1559 14.169395630487383 7.085261501366994 6.626368969175539 0 0 0
812 102 4 -0.488411 4.914625830402276 0.1100329683091984 7.952923345985239 0 1 0
53 7 5 -0.008385 8.895362968933417 14.020389440131472 14.276959034843618 0 0 0
50 7 2 -0.169515 7.783575095739056 12.149354510470632 13.834507721698133 0 0 0
480 60 6 0.1559 0.49215044408620906 16.410757203768128 12.685659442104312 1 0 0
788 99 4 -0.488411 8.402400733642285 0.04496305168215012 7.175624877406939 0 1 0
996 125 4 -0.488411 2.96707635235576 0.2889388320277204 12.366746421203487 1 1 0
217 28 1 -0.38353 0.11523903364482617 6.9452220871188555 10.527417633872302 1 0 0
804 101 4 -0.488411 9.980585905944812 0.3623738280159655 12.222996407478368 0 1 0
3863 483 6 0.19089 7.525673580310509 3.1175946661271072 0.43581227715314574 0 1 1
3364 421 4 -0.488411 10.63995120837653 18.27770211185523 1.2650943473274499 0 0 1
345 44 1 -0.38353 14.235790413288186 16.261692839851793 10.329301867069882 0 0 0
1033 130 1 -0.38353 5.001818733752641 12.01545688774806 20.653349297416497 0 0 0
2093 262 5 -0.008385 4.929706777822957 8.712226278527522 27.441461261886275 0 0 0
1222 153 6 0.19089 2.6559424100080515 6.280428719961779 21.82674396357421 1 0 0
1870 234 6 0.19089 11.773370943409029 2.808581354068264 20.207801043625057 0 1 0
1233 155 1 -0.38353 1.1662821455898789 10.80464144047006 20.753044970301964 1 0 0
55 7 6 0.19089 7.463634817265811 10.832737027869108 15.456833498825707 0 0 0
1308 164 4 -0.488411 6.593614573023675 17.68977746054529 24.270124923389247 0 0 0
1056 132 6 0.1559 7.427662169959073 7.126639853349532 23.792746481137055 0 0 0
1010 127 2 -0.169515 2.0502009483958257 3.4039022767231963 14.736091198283596 1 1 0
1885 236 5 -0.008385 13.243840996511866 0.30406579446848614 22.018767216715045 0 1 0
481 61 1 -0.38353 2.7894947086640465 17.286666112760834 15.027265694922166 1 0 0
2864 358 6 0.1559 3.2462603703920636 1.5869981622235891 27.702407211622873 0 1 0
33 5 1 -0.38353 10.633557855495784 7.688802098113405 15.191058024111259 0 0 0
1343 168 6 0.19089 6.225097515242873 16.243855977548275 14.374818036893934 0 0 0
1811 227 3 0.512161 8.333979996201798 0.2462784084499552 18.827408204127163 0 1 0
1903 238 6 0.19089 12.467521092594053 3.093309601452852 15.852489308273482 0 1 0
1324 166 4 -0.488411 5.817034743749173 18.488754736903317 18.934516759203344 0 0 0
1113 140 1 -0.38353 14.34404622453851 7.479434179678261 21.164479678891272 0 0 0
1342 168 6 0.19089 7.814994177633741 16.75176720107702 15.175760437083003 0 0 0
2036 255 4 -0.488411 1.3648943457092608 4.244215679054469 22.966800468479473 1 1 0
1115 140 3 0.512161 13.958341205699474 9.38398606993457 22.661372469074937 0 0 0
1838 230 6 0.19089 5.4202647740820735 1.0750372508269836 15.049126103608844 0 1 0
1134 142 6 0.19089 12.29533728814466 11.087975367408898 14.99452486368972 0 0 0
1270 159 6 0.19089 1.466920574593814 12.236926122454975 26.80192773116025 1 0 0
2858 358 2 -0.169515 4.2425676557289815 1.3346038383004124 27.417152089513422 0 1 0
1372 172 4 -0.488411 13.965857219760341 18.159983767589267 23.990861128411552 0 0 0
1065 134 1 -0.38353 4.649850970777912 10.996769532973769 15.719674204349582 0 0 0
1237 155 5 -0.008385 0.33283849115002445 10.773270944192358 18.135724708563984 1 0 0