LAMMPS data file via write_data, version 29 Sep 2021, timestep = 2500000

6144 atoms
8 atom types
3584 bonds
6 bond types
4608 angles
8 angle types
4096 dihedrals
6 dihedral types
1536 impropers
3 improper types

0 29.0995366 xlo xhi
0 37.183529 ylo yhi
0 42.95514399 zlo zhi
-0.0100591125099978 -0.0617010042405149 0.0346948157243815 xy xz yz

Masses

1 12.01
2 12.01
3 12.01
4 16
5 1.008
6 1.008
7 0.001
8 0.001

Bond Coeffs # harmonic

1 343.1 1.088
2 547.3 1.346
3 342.5 1.088
4 354.5 1.482
5 310.7 1.112
6 637.7 1.218

Angle Coeffs # harmonic

1 49.6 119.94
2 65.5 120.42
3 38.1 116.9
4 49.5 120.45
5 46.7 114.89
6 68.8 123.2
7 46.5 116.46
8 54.2 120.7

Dihedral Coeffs # charmm

1 2.175 2 180 0
2 2.175 2 180 0
3 6.65 2 180 0
4 6.65 2 180 0
5 2.175 2 180 0
6 2.175 2 180 0

Improper Coeffs # cvff

1 10.5 -1 2
2 1.1 -1 2
3 1.1 -1 2

Atoms # full

3108 389 4 -0.488411 10.385459466772401 9.004678299970749 1.685994042960053 0 0 1
3892 487 4 -0.488411 8.48328143616558 5.09247799446017 1.8499004423660974 0 1 1
3915 490 3 0.512161 12.34833717386798 3.5204708121011845 1.683751618307944 0 1 1
3852 482 4 -0.488411 5.166583594151043 4.676482106365414 2.6885137062286817 0 1 1
3300 413 4 -0.488411 2.730456274422198 9.375435855071572 2.0027042456602664 1 0 1
3099 388 3 0.512161 6.701802315841121 8.14064213786526 1.9642411464350156 0 0 1
3101 388 5 -0.008385 7.35735303533179 7.268647101677509 2.3450205755284945 0 0 1
3869 484 5 -0.008385 6.929316927625655 0.5266881094194791 0.7954910247429975 0 1 1
3891 487 3 0.512161 8.44386732939306 4.603303412371843 2.9836677816718002 0 1 1
3896 487 6 0.1559 7.962045058156201 2.5338928603484923 2.3168112815504 0 1 1
3107 389 3 0.512161 10.352421861859304 8.649099126972214 2.827879387107648 0 0 1
3299 413 3 0.512161 2.7710516840483614 8.946943126978443 3.1355455785965867 1 0 1
3100 388 4 -0.488411 6.436144994907977 9.039100564959021 2.8150375805230725 0 0 1
3916 490 4 -0.488411 12.071938827551428 4.255263726961721 2.628468521536461 0 1 1
3301 413 5 -0.008385 2.3463874391041926 9.48137427108274 3.9890307013126405 1 0 1
3112 389 6 0.1559 11.098295504463353 6.466899489451904 2.7032143160132303 0 0 1
3109 389 5 -0.008385 9.731195297816619 9.229167799125461 3.528560203132545 0 0 1
3890 487 2 -0.169515 8.167205946899099 3.1782875034982947 3.2354669256719393 0 1 1
3106 389 2 -0.169515 10.752658665780144 7.332018907939428 3.3254661538856465 0 0 1
3298 413 2 -0.169515 3.472105155393903 7.699045560266415 3.4889728011068937 1 0 1
3893 487 5 -0.008385 8.82751431029773 5.167464069572705 3.8768275695195467 0 1 1
3168 396 6 0.1559 13.674295989669355 6.549654695933586 1.5033359786908747 0 0 1
815 102 6 0.19089 4.100173613414721 3.188892142202765 4.371325585778398 0 1 0
3856 482 6 0.1559 3.5129390033503665 2.986041709078139 1.6935962257489703 0 1 1
3121 391 1 -0.38353 8.547053043070589 11.662796567711126 4.426511954582124 0 0 1
3313 415 1 -0.38353 0.9612486760415809 11.833557845668796 4.620125054342902 1 0 1
62 8 6 0.19089 7.043385859577351 6.244655018809545 4.301337976648328 0 0 0
63 8 6 0.19089 7.539395808718259 7.9161890917335365 5.104278988192279 0 0 0
3889 487 1 -0.38353 8.386923117363493 2.6417325385493298 4.487879225460789 0 1 1
879 110 6 0.19089 11.64382604927848 2.7292379643240983 4.699973801808007 0 1 0
984 123 6 0.1559 1.65313109680082 2.5200517869359587 8.292522605543262 1 1 0
3105 389 1 -0.38353 10.591127646339782 7.054390412761046 4.656194983291787 0 0 1
3111 389 6 0.19089 10.782975886424756 6.02424733367598 5.00941956158871 0 0 1
3110 389 6 0.19089 10.170768162775136 7.715347309033801 5.374101393330818 0 0 1
3297 413 1 -0.38353 3.5768402696066226 7.248838710687262 4.743736206269078 1 0 1
41 6 1 -0.38353 4.879012469336276 11.145630826434575 4.962774078934217 0 0 0
873 110 1 -0.38353 11.826231476992287 1.693194005988202 5.007791576634296 0 1 0
105 14 1 -0.38353 11.827356283920379 11.911332940768254 5.4706555199519284 0 0 0
4085 511 5 -0.008385 0.8174239499821097 5.084576037419104 3.939967676374968 1 1 1
3303 413 6 0.19089 4.215340954180698 6.4079400489466725 5.017547359819406 1 0 1
57 8 1 -0.38353 7.17976507788141 6.863188374976998 5.166440137835464 0 0 0
809 102 1 -0.38353 4.5646913377744385 2.2616704038758573 4.753794504833938 0 1 0
6122 0 8 0 12.180592421838234 4.539539848323568 2.5984196463048725 0 0 0
3894 487 6 0.19089 8.578071342595148 3.2737106608540545 5.372620461372982 0 1 1
3302 413 6 0.19089 3.1234609791739043 7.758345920824639 5.624305844423289 1 0 1
106 14 2 -0.169515 11.797199848573456 11.157085738419775 6.57031836573862 0 0 0
810 102 2 -0.169515 4.592530723029461 1.9943371370470058 6.062856874420771 0 1 0
61 8 5 -0.008385 6.266738439226303 4.481632338023594 5.762660216037099 0 0 0
42 6 2 -0.169515 5.459395952521286 10.720258200666658 6.10332749315526 0 0 0
58 8 2 -0.169515 6.94196177828998 6.381743310851314 6.423006633336264 0 0 0
123 16 3 0.512161 13.774539703563972 5.255738999147587 6.600353353914159 0 0 0
3286 411 6 0.19089 1.5646965987929116 10.67152642166994 0.1982924439064031 1 0 1
3095 387 6 0.19089 9.011384780301634 11.335122468534685 0.47937467465309913 0 0 1
79 10 6 0.19089 11.505147164947964 11.242141949181192 9.636538810434896 0 0 0
6119 0 8 0 8.571484422570713 4.722477848324764 1.7361806463291685 0 0 0
777 98 1 -0.38353 4.858695582042375 2.9267559823664584 10.215713640238366 0 1 0
3190 399 6 0.19089 14.18506583193043 11.790386782005113 3.997753187924848 0 0 1
3304 413 6 0.1559 3.8813056220126128 7.120857945856604 2.674980492462428 1 0 1
209 27 1 -0.38353 1.3848515665399066 11.584142759258016 9.915793006581715 1 0 0
3850 482 2 -0.169515 4.47594880765125 3.109685771155107 1.1283234859547244 0 1 1
3895 487 6 0.19089 8.344766406890983 1.5313233838223674 4.612802016199955 0 1 1
841 106 1 -0.38353 12.08798981849278 2.5872004769107213 10.138876440137677 0 1 0
109 14 5 -0.008385 12.562647272681676 9.348851940144398 5.550723674594369 0 0 0
874 110 2 -0.169515 11.758763299455358 1.3539083474488016 6.315900724648159 0 1 0
4068 509 4 -0.488411 3.1294357779587223 0.08519394364517822 2.13728598608144 1 1 1
64 8 6 0.1559 7.065494457359444 7.037358210851544 7.326213223279648 0 0 0
20 3 4 -0.488411 8.918758817728321 9.376022826523094 6.984537282636498 0 0 0
196 25 4 -0.488411 2.8755005541641347 4.7211375941999 7.109164437283606 1 0 0
4 1 4 -0.488411 10.083964157649438 4.381246710919126 6.984386935272931 0 0 0
59 8 3 0.512161 6.588184847935456 4.953279645046704 6.712659801216941 0 0 0
45 6 5 -0.008385 3.7855099029836565 9.400625857438648 6.688766481815383 0 0 0
43 6 3 0.512161 4.764590024342791 9.796158312632619 7.006423359366692 0 0 0
107 14 3 0.512161 12.199786388063707 9.748142461530026 6.540646799766806 0 0 0
3960 495 6 0.1559 14.383807740293237 3.4950379087794587 3.2352707874097923 0 1 1
19 3 3 0.512161 8.85226972161015 9.686428647383522 8.190622362901761 0 0 0
195 25 3 0.512161 3.38460322860512 5.652901263417969 7.784068459665125 1 0 0
44 6 4 -0.488411 5.233770479493467 9.340801075697184 8.04835860025161 0 0 0
108 14 4 -0.488411 12.165566234338538 9.041932604383634 7.512996749941998 0 0 0
3 1 3 0.512161 9.988517352084283 4.843508231588397 8.144289151498516 0 0 0
60 8 4 -0.488411 6.417138248314825 4.375948655284433 7.761077870073817 0 0 0
8 1 6 0.1559 10.693262242790441 6.909600919579639 7.648617399586721 0 0 0
2 1 2 -0.169515 10.360131238603348 6.267547753745074 8.421563760204256 0 0 0
786 99 2 -0.169515 8.896574702336544 1.082207620070175 8.78924496304001 0 1 0
194 25 2 -0.169515 2.810535591164501 6.016340104303405 9.088137693329749 1 0 0
197 25 5 -0.008385 4.228063124667994 6.284573441135948 7.351356308524459 1 0 0
978 123 2 -0.169515 1.5128045135276926 1.771776116854983 9.040605096632941 1 1 0
6141 0 8 0 3.049693823690118 0.021415848323180074 1.8247266463378806 0 0 0
18 3 2 -0.169515 8.875621969069563 11.056287999988982 8.726952203951623 0 0 0
21 3 5 -0.008385 8.874199594063054 8.956638304533659 9.042870624191188 0 0 0
23 3 6 0.19089 8.618276137712483 12.330699175192626 10.44721021561024 0 0 0
3876 485 4 -0.488411 10.382610384051695 0.4275195949047755 1.7200660857139636 0 1 1
5 1 5 -0.008385 9.78173829892226 4.2823084225045145 9.058864890231746 0 0 0
110 14 6 0.19089 12.208642094253646 11.47664101235648 4.5345337630764195 0 0 0
1 1 1 -0.38353 10.263321199679984 6.760659923224773 9.642616840738537 0 0 0
979 123 3 0.512161 1.1186002877855552 0.4502491674414462 8.557468843431385 1 1 0
254 32 6 0.19089 0.17599892197127698 8.14406457439853 5.287732415734265 1 0 0
122 16 2 -0.169515 14.491820216642912 6.440707613173777 6.089999944025156 0 0 0
47 6 6 0.19089 5.411627628674985 11.801084876100782 4.2212368363669635 0 0 0
5566 0 7 0 12.147156421842608 3.996391848323461 1.5903226463157019 0 0 0
5648 0 8 0 13.825777304758578 4.652195664048835 7.898942637123802 0 0 0
4088 511 6 0.1559 1.4914083168523813 2.057075508583704 3.1604801389441333 1 1 1
783 98 6 0.19089 4.793282641774619 1.9937628214234226 9.701991729112764 0 1 0
3088 386 6 0.1559 5.002964866831343 11.353922905266668 1.9028066306874052 0 0 1
124 16 4 -0.488411 13.784942099620336 4.7034748519702685 7.708688390026517 0 0 0
811 102 3 0.512161 4.976033526672547 0.7050740862971736 6.609250307848686 0 1 0
5731 0 8 0 8.501737418346547 0.12987466403916065 7.128211637050105 0 0 0
5565 0 7 0 12.127346421852907 3.317414848322282 0.6979306461934436 0 0 0
125 16 5 -0.008385 13.259030904165977 4.803806516276105 5.744741412334105 0 0 0
6124 0 8 0 13.90264442149446 0.0687088483148318 2.608664646306972 0 0 0
846 106 6 0.19089 11.510467712300175 1.650314699602992 10.35252197180932 0 1 0
6117 0 8 0 10.310236422219239 0.01903884832248669 1.712036646327292 0 0 0
5629 0 7 0 1.411663824022169 4.331267848323923 3.031359646521874 0 0 0
5627 0 7 0 1.092920824086666 2.650364848320832 4.7873946464401 0 0 0
5557 0 7 0 8.65240642255433 4.3252408483242135 2.8403716465040447 0 0 0
878 110 6 0.19089 12.107733841585656 0.9414689818522304 4.281853847217195 0 1 0
4086 511 6 0.19089 0.06380941887313549 3.5147950426267807 5.524548345692155 1 1 1
880 110 6 0.1559 11.544396585598399 2.1662225598179634 7.036358004785112 0 1 0
3851 482 3 0.512161 5.413691619849669 4.09220577427922 1.6517451863422188 0 1 1
200 25 6 0.1559 1.9773317590190107 5.420455896390073 9.538626141305647 1 0 0
792 99 6 0.1559 9.896453206905322 1.3684850355776716 8.422054621199468 0 1 0
6028 0 8 0 13.923321308977002 9.289010848334867 2.5446416462950645 0 0 0
3082 386 2 -0.169515 4.854489966548672 12.110581313175901 1.080969054731103 0 0 1
3914 490 2 -0.169515 11.735964560821571 3.405168342255346 0.3768103095566543 0 1 1
3145 394 1 -0.38353 12.135663644215354 11.542676146155957 0.02582502068373885 0 0 1
5638 0 8 0 4.927683306560156 9.42223166406018 8.082714636508717 0 0 0
121 16 1 -0.38353 14.36018890222327 6.8686670974053685 4.818689190521782 0 0 0
3079 385 6 0.19089 9.527091089837388 6.825201323808492 0.13015778127436547 0 0 1
6116 0 8 0 6.62327342296676 0.07418584831483918 2.5607116462977566 0 0 0
3853 482 5 -0.008385 6.416909175219145 4.156513271110045 1.170700087182306 0 1 1
30 4 6 0.19089 6.627502914209848 8.067963282030563 9.606395858553682 0 0 0
5628 0 7 0 0.9714428241109968 3.0513858483216016 3.5339076465694688 0 0 0
812 102 4 -0.488411 4.847175194189398 0.40992504578855543 7.787477060035727 0 1 0
3127 391 6 0.19089 8.21257710756427 10.683654232269069 4.749810110380038 0 0 1
48 6 6 0.1559 6.463545367101413 11.046770852065158 6.447078055546579 0 0 0
95 12 6 0.19089 13.02253918583539 6.513039076615372 9.792277045212817 0 0 0
4081 511 1 -0.38353 0.3914528275849084 2.668154094796826 4.889858645587815 1 1 1
17 3 1 -0.38353 8.633804889443732 11.313942425192627 10.00162027802473 0 0 0
5734 0 8 0 4.787736419098198 0.10388166403910604 7.962007637130236 0 0 0
814 102 6 0.19089 4.798746755250566 1.561865939444837 3.936474854353533 0 1 0
782 98 6 0.19089 4.802889791748584 3.831497421198787 9.615905256007272 0 1 0
112 14 6 0.1559 11.444103169366645 11.557782299461048 7.521471108733021 0 0 0
5633 0 8 0 10.169333305496533 4.601975664049359 7.132738637051177 0 0 0
6114 0 8 0 4.895846423315648 4.647151848325055 2.6093646463068807 0 0 0
4083 511 3 0.512161 1.3445889051264346 4.249962160656199 3.3240993554682063 1 1 1
3163 396 3 0.512161 13.861964146970172 8.667794051422991 1.3897477334073176 0 0 1
211 27 3 0.512161 1.2908871288076396 10.58844395590857 7.62373018630569 1 0 0
3128 391 6 0.1559 7.397512234121871 11.720962640564272 2.7286976238105027 0 0 1
5640 0 8 0 6.612422306217581 4.6269926640490295 7.921314637126367 0 0 0
847 106 6 0.19089 12.316168462376627 2.7430692775480385 9.067225529424892 0 1 0
210 27 2 -0.169515 1.5568079981385412 10.507182625229907 9.099727757825677 1 0 0
5635 0 8 0 8.639987305808807 9.309287664059912 7.1103886370487945 0 0 0
787 99 3 0.512161 8.073035005872539 0.17611020093581897 7.976711346047958 0 1 0
3150 394 6 0.19089 11.561320597849154 10.841049040587267 0.5994003416101774 0 0 1
790 99 6 0.19089 7.392427679190961 1.7225656690097115 10.132503874448718 0 1 0
73 10 1 -0.38353 12.02114915770032 11.985620946743506 10.25201919588467 0 0 0
3319 415 6 0.19089 0.4766722361513315 10.873543348842539 4.935409374333618 1 0 1
5657 0 8 0 3.004842706948321 4.791228664050349 7.137305637051992 0 0 0
4069 509 5 -0.008385 2.036687627931055 0.3340393087002743 3.7685581753815427 1 1 1
3162 396 2 -0.169515 13.894247843413128 7.366464165173288 0.845497130825473 0 0 1
5646 0 8 0 12.208871305085271 9.308147664060527 7.903789637124194 0 0 0
212 27 4 -0.488411 1.3763702088084055 9.63649437941643 6.871369606445113 1 0 0
3098 388 2 -0.169515 6.484307007340869 8.237580355791986 0.542414258676078 0 0 1
193 25 1 -0.38353 3.3791706267393846 6.996799638707326 9.846878089813787 1 0 0
6021 0 8 0 10.312216309708685 9.343316848333556 1.8175316463370486 0 0 0
126 16 6 0.19089 13.736170776934497 6.345690942610801 4.14878111930411 0 0 0
216 27 6 0.1559 1.8437692335650164 9.56498166740136 9.460745237803827 1 0 0
4084 511 4 -0.488411 1.821786018201643 4.514312456599616 2.219957102966404 1 1 1
7 1 6 0.19089 10.402277992314735 7.824619932805901 9.863377036318338 0 0 0
4082 511 2 -0.169515 1.1437746876428037 2.893479085846857 3.8071136490536426 1 1 1
5659 0 8 0 1.2221497073102825 9.488888664061925 7.235732637061504 0 0 0
6143 0 8 0 1.3108718240424413 4.6850488483249295 1.8994896463450541 0 0 0
198 25 6 0.19089 4.303919163935251 7.541663898143351 9.596886335593302 1 0 0
3102 388 6 0.19089 7.578166784135029 6.4989169917130925 0.048510060402209995 0 0 1
15 2 6 0.19089 5.355050392264724 11.53172359813491 9.72416280334468 0 0 0
3917 490 5 -0.008385 13.147554462369802 2.7570649537709793 1.7318613022833143 0 1 1
875 110 3 0.512161 12.1492081012006 0.04831123479786558 6.881430439673731 0 1 0
6045 0 8 0 3.0189127111858625 9.329202848332333 1.73491864632918 0 0 0
3863 483 6 0.19089 8.778464102069055 2.5146143745831053 0.3300370984938161 0 1 1
6020 0 8 0 6.644364310451007 9.310797848331712 2.5203406462908178 0 0 0
24 3 6 0.1559 9.005673384428942 11.826593520317013 8.003119749852537 0 0 0
25 4 1 -0.38353 6.830518256276626 7.364059418070319 10.378641910628268 0 0 0
4097 0 7 0 10.356201305461637 6.604079664052774 10.04184663687247 0 0 0
4098 0 7 0 10.488991305433192 6.216837664051569 8.78591163664023 0 0 0
4099 0 7 0 10.046319305524333 4.947881664049066 8.264187636542216 0 0 0
4100 0 7 0 4.913934306563034 12.095305664064718 10.483092636955474 0 0 0
4103 0 7 0 8.452371305846205 11.318299664064503 10.012006636867332 0 0 0
4104 0 7 0 8.326565305874182 10.923276664065177 8.76056463663438 0 0 0
4105 0 7 0 8.750476305787284 9.659400664056752 8.238574636537622 0 0 0
4106 0 7 0 6.764469306185731 7.301160664055601 10.37155063693203 0 0 0
4112 0 7 0 4.831672306578922 11.228523664060338 5.062113636491231 0 0 0
4113 0 7 0 4.961730306550263 10.501376664060798 6.0969426369529405 0 0 0
4114 0 7 0 4.8047583065837305 10.073769664061768 7.149931637052237 0 0 0
4118 0 7 0 6.76560930618679 6.68433566405233 5.053636636489214 0 0 0
4119 0 7 0 6.920871306154264 6.25318666405244 6.284370636970516 0 0 0
4120 0 7 0 6.473098306246003 5.01298366404845 6.811445637020785 0 0 0
4124 0 7 0 12.053388305115808 12.011314664066088 10.330804636924515 0 0 0
4130 0 7 0 13.936365304730064 7.229362664054983 10.341012636926429 0 0 0
4136 0 7 0 12.060754305120877 11.327961664066 5.005470636481093 0 0 0
4137 0 7 0 11.902126305145252 10.925260664061573 6.2509216369671305 0 0 0
4138 0 7 0 12.354555305053061 9.666313664058512 6.780966637017828 0 0 0
4142 0 7 0 14.060305304708649 6.658257664054553 5.006116636480939 0 0 0
4143 0 7 0 14.217720304675469 6.2431986640508885 6.246398636966766 0 0 0
4144 0 7 0 13.682299304782894 5.020722664048568 6.781334637017205 0 0 0
4169 0 7 0 3.115503706926588 6.732810664051587 10.083314636879779 0 0 0
4170 0 7 0 3.1408447069215275 6.160615664052544 8.942008636668826 0 0 0
4171 0 7 0 2.9782137069540835 5.308846664049416 8.163438636522613 0 0 0
4175 0 7 0 1.1567927073234716 11.354608664061953 10.23600563690775 0 0 0
4176 0 7 0 1.3603187072818475 10.508603664059883 9.275321636732098 0 0 0
4177 0 7 0 1.035041707347836 10.24922666406358 8.101431636512075 0 0 0
4388 0 7 0 4.747397419105614 2.7208356640449227 10.466969636950884 0 0 0
4391 0 7 0 8.351622418373536 1.9096286640426667 10.172307636895834 0 0 0
4392 0 7 0 8.441389418360394 1.3007886640415023 9.058007636689089 0 0 0
4393 0 7 0 8.412053418363223 0.6734546640403717 8.133298636517791 0 0 0
4400 0 7 0 4.766567419103499 2.0425666640429547 5.019090636483259 0 0 0
4401 0 7 0 4.785323419097494 1.3627226640419663 6.093359636953553 0 0 0
4402 0 7 0 4.77323241910119 0.7139626640402931 6.994642637038126 0 0 0
4412 0 7 0 12.001651417637124 2.6547616640442135 10.260687636912962 0 0 0
4424 0 7 0 12.010392417631847 1.968994664042711 5.053551636489545 0 0 0
4425 0 7 0 11.917590417654996 1.4180466640420915 6.2081896369622624 0 0 0
4426 0 7 0 12.193358417599393 0.4701376640399333 6.918879637031365 0 0 0
4463 0 7 0 1.0927338198459025 2.14147966404316 10.044116636874161 0 0 0
4464 0 7 0 0.9429938198763946 1.6634656640425491 8.82809963664814 0 0 0
4465 0 7 0 1.3642108197912006 0.4102446640396769 8.340864636556217 0 0 0
5259 0 7 0 6.810709310415438 7.881972848331449 0.7546606462016179 0 0 0
5260 0 7 0 6.609244310457617 8.811829848333202 1.4859866463056568 0 0 0
5261 0 7 0 10.443084309682828 7.2729728483313085 4.680014646419951 0 0 0
5262 0 7 0 10.628152309647504 7.705269848331644 3.4475796465613344 0 0 0
5263 0 7 0 10.148163309742397 8.958719848332668 2.928744646511591 0 0 0
5267 0 7 0 8.427247310091746 11.962194848339784 4.669754646417992 0 0 0
5283 0 7 0 14.084673308941895 7.868718848331695 0.7667276462026876 0 0 0
5284 0 7 0 13.899049308982175 8.768578848331835 1.5212596463090304 0 0 0
5333 0 7 0 3.148991711159511 7.418336848330398 4.698924646423336 0 0 0
5334 0 7 0 3.2084237111479235 7.887522848331151 3.4974476465656386 0 0 0
5335 0 7 0 2.967224711197295 8.907230848333342 2.816815646501787 0 0 0
5339 0 7 0 1.1114807115728458 11.976454848342101 4.66619464641741 0 0 0
5541 0 7 0 4.823956423331916 3.357530848322816 0.7581836462019278 0 0 0
5542 0 7 0 4.875262423319117 4.071771848323767 1.6207266463186063 0 0 0
5555 0 7 0 8.36955842261118 2.6976168483207488 4.61614964640748 0 0 0
5556 0 7 0 8.272260422632067 3.1483768483210204 3.3930476465563486 0 0 0
977 123 1 -0.38353 1.823064554506552 1.9387324816550537 10.304719261269641 1 1 0
816 102 6 0.1559 4.307330082365193 2.7892024345826165 6.769914067416782 0 1 0
3164 396 4 -0.488411 13.513483576886024 8.955879731381922 2.5125308205184047 0 0 1
785 99 1 -0.38353 8.42998505416804 1.8036551638120446 9.827407410927323 0 1 0
46 6 6 0.19089 3.9058411646350817 10.835250586275823 4.663712135441298 0 0 0
3296 412 6 0.1559 0.8183307753416775 7.6035551922447056 1.1485203940547803 1 0 1
3126 391 6 0.19089 9.280971396114099 12.068889804219035 5.092503681634085 0 0 1
3314 415 2 -0.169515 0.8321107421197762 12.294057173446474 3.3360223807080454 1 0 1
89 12 1 -0.38353 13.610082368834385 7.257733315897657 10.245105553637485 0 0 0
3877 485 5 -0.008385 9.09175125642647 0.053103466831238434 3.203790638732093 0 1 1
31 4 6 0.19089 7.056323809723949 6.340345960600666 10.117612731140172 0 0 0
4087 511 6 0.19089 0.2706729697996982 1.6557611819452684 5.255426211807719 1 1 1
253 32 5 -0.008385 0.8637291362679332 6.767690825765155 7.332562711705542 1 0 0
791 99 6 0.19089 8.986285042310902 2.4937685585387674 10.36986770080905 0 1 0
6 1 6 0.19089 10.009508498331298 6.123644795681057 10.481463924808418 0 0 0
3932 492 4 -0.488411 13.488789735442532 0.18838666500229034 2.3211330795846696 0 1 1
213 27 5 -0.008385 0.9180793538179526 11.52420797215643 7.267895464532606 1 0 0
3122 391 2 -0.169515 8.160351900942805 12.222814178839794 3.273340298668423 0 0 1
3320 415 6 0.1559 0.22871651477708313 11.649351242359256 2.668446420943029 1 0 1
980 123 4 -0.488411 0.9861453086483233 0.2087401812016205 7.351594098561468 1 1 0
3165 396 5 -0.008385 14.203258611469924 9.478570512329002 0.6937159833446782 0 0 1
9 2 1 -0.38353 4.833783447118135 12.294661587156998 10.310867818158963 0 0 0
983 123 6 0.19089 2.0490499781058795 2.9400195640318274 10.666163751296782 1 1 0
3104 388 6 0.1559 5.867503679032074 9.067898884536072 0.22118033822937117 0 0 1
3920 490 6 0.1559 10.976277465251442 4.161195128060901 0.14342997791237597 0 1 1
3849 482 1 -0.38353 4.680219674350701 2.339838771347987 0.03776607850386553 0 1 1
3318 415 6 0.19089 1.5220617270647538 12.321272072898017 5.4198504067104025 1 0 1
22 3 6 0.19089 8.379605558126936 10.407275379126988 10.572652030986802 0 0 0
40 5 6 0.1559 11.400689804263337 7.211015359818804 13.897532975332084 0 0 0
1150 144 6 0.19089 12.443516096122313 6.008970712974826 15.724107990994462 0 0 0
227 29 3 0.512161 2.908358340261439 9.171870374439086 13.533575575375767 1 0 0
1233 155 1 -0.38353 0.7795191493928127 11.238274768762018 20.616542441570026 1 0 0
1812 227 4 -0.488411 8.12936989038721 0.2640100224853565 18.17701102322167 0 1 0
997 125 5 -0.008385 2.4055250233181313 0.5088888630671868 14.165879471948863 1 1 0
842 106 2 -0.169515 12.314661084735576 3.535164961235183 11.065815067901683 0 1 0
90 12 2 -0.169515 13.183365540646987 7.768241849376887 11.42888078026389 0 0 0
778 98 2 -0.169515 4.904641489142728 3.0257068935678673 11.570062333586867 0 1 0
781 98 5 -0.008385 4.724334863598013 5.256138844569422 11.672016869432337 0 1 0
860 108 4 -0.488411 13.75698140151856 0.20048919700367235 13.043365882103844 0 1 0
1835 230 3 0.512161 4.798447038024734 0.28555749719825535 17.620007590196472 0 1 0
224 28 6 0.1559 0.20254581577336633 7.0200606677804895 12.01249436687986 1 0 0
248 31 6 0.1559 0.8213058395432317 11.489906107176875 13.31247225964273 1 0 0
29 4 5 -0.008385 6.2523674811729 9.776532738555193 11.37966319272268 0 0 0
843 106 3 0.512161 11.872640602801269 3.3341976707687957 12.461604860256964 0 1 0
784 98 6 0.1559 4.948324784818463 2.103178355148273 12.103459183611905 0 1 0
27 4 3 0.512161 6.6508967091542734 9.095324348574138 12.147956012470045 0 0 0
779 98 3 0.512161 4.972743269859983 4.336749759138397 12.239105743537804 0 1 0
26 4 2 -0.169515 6.912419631893724 7.7279913219027785 11.696173891741054 0 0 0
215 27 6 0.19089 1.5575342946330784 11.563992560269275 10.994680731798132 1 0 0
228 29 4 -0.488411 3.1147265792824133 9.785273547673064 12.498138078806013 1 0 0
36 5 4 -0.488411 10.20966931236331 8.982572084396022 12.361870150943847 0 0 0
1899 238 3 0.512161 12.494563800551646 0.2808815189904312 17.96346425156258 0 1 0
1047 131 6 0.19089 8.272484916112532 12.36431703244793 21.18152742477966 0 0 0
820 103 4 -0.488411 8.55243836273015 4.749639874790148 12.20125361226327 0 1 0
1217 153 1 -0.38353 2.866653724261569 6.661008195624264 20.869120372895782 1 0 0
1016 127 6 0.1559 1.3259573575350823 4.734020846470389 15.39622003072701 1 1 0
2008 251 6 0.1559 0.08475290321043746 1.7871516049418583 19.161433520335645 1 1 0
5730 0 8 0 4.8599194190817485 4.679010664047479 13.398557637923744 0 0 0
819 103 3 0.512161 8.733050368132467 4.434490393776805 13.366168267539091 0 1 0
861 108 5 -0.008385 13.399507591127149 0.2898619939110974 11.021101272362063 0 1 0
34 5 2 -0.169515 10.680867227582185 7.794834467806697 14.34635128794956 0 0 0
1813 227 5 -0.008385 7.0607587123550655 0.4940171948970705 19.88857663568056 0 1 0
818 103 2 -0.169515 8.353899350904799 3.1145360699408084 13.903409210990414 0 1 0
35 5 3 0.512161 10.027518037328552 8.878137999759959 13.587386108794476 0 0 0
1870 234 6 0.19089 12.371870684846483 3.6860696617489426 20.427258930402736 0 1 0
780 98 4 -0.488411 4.943444884413107 4.381623255552626 13.429476957822375 0 1 0
1072 134 6 0.1559 3.739614234464252 11.373326645260093 18.020200928752157 0 0 0
28 4 4 -0.488411 6.873913137893914 9.414197581994634 13.300413044243236 0 0 0
5661 0 8 0 3.0577767069378163 9.400680664061257 12.56054463784373 0 0 0
232 29 6 0.1559 4.284234553025921 7.435321190415513 13.095690793055008 1 0 0
844 106 4 -0.488411 12.161193980922931 4.187940075544865 13.318068626907404 0 1 0
1904 238 6 0.1559 11.306368149693006 2.1341785522102743 18.064025111702087 0 1 0
824 103 6 0.1559 7.662484328586472 2.540077492944592 13.277552387640752 0 1 0
2007 251 6 0.19089 0.8680714288015823 2.7956484151149983 21.261901836670187 1 1 0
1148 144 4 -0.488411 14.079150360074186 4.668214168594055 19.08765382561436 0 0 0
1147 144 3 0.512161 13.459043989297344 5.063268690227939 18.136343007492542 0 0 0
5766 0 8 0 4.827283306579642 9.345337664059958 18.811101637414094 0 0 0
5644 0 8 0 13.92589330473502 9.225600664059057 13.254231637909959 0 0 0
1871 234 6 0.19089 12.108059981613744 1.9262487827167318 20.721483646782204 0 1 0
1041 131 1 -0.38353 8.347996915625542 11.31043456415076 20.822240561898585 0 0 0
1010 127 2 -0.169515 1.223369401531659 3.799716869183749 14.839727857401268 1 1 0
33 5 1 -0.38353 10.133895449416789 7.51307049292311 15.54322727413271 0 0 0
2003 251 3 0.512161 1.5885649288003667 0.18493756934350633 19.31469399482858 1 1 0
1903 238 6 0.19089 11.713115875390558 2.7228849740263934 15.691062809527994 0 1 0
1039 130 6 0.19089 4.693480449890483 10.951245886816752 20.805004203431743 0 0 0
1134 142 6 0.19089 12.43957789121135 10.414233655022548 15.341150858623253 0 0 0
5757 0 8 0 2.9039028194804053 0.018142664081607397 12.388330637827824 0 0 0
1065 134 1 -0.38353 4.842464760324291 11.385224866775909 16.224669356479605 0 0 0
1135 142 6 0.19089 11.513461523478863 11.99831381856231 15.567894067117809 0 0 0
1902 238 6 0.19089 12.753040411901912 1.1948544594422292 15.470436450407375 0 1 0
1009 127 1 -0.38353 1.032228330062855 2.6135422769404153 15.415980784078295 1 1 0
1235 155 3 0.512161 1.0124427462825805 10.12309376218137 18.45454166168197 1 0 0
1118 140 6 0.19089 14.106073932391894 7.996204763143065 20.45134530026892 0 0 0
1897 238 1 -0.38353 12.10595964898093 1.8117521223613293 16.105386590620945 0 1 0
1839 230 6 0.19089 4.769596696913555 3.067309895784505 15.403210736874962 0 1 0
1240 155 6 0.1559 2.1928177868783734 9.764700138634685 20.293664621365952 1 0 0
1833 230 1 -0.38353 4.78428261798367 2.0065587789410024 15.77384322873028 0 1 0
821 103 5 -0.008385 9.462831765609453 4.946176806761248 14.012230156806643 0 1 0
5637 0 8 0 10.230168305485277 9.28391966405921 12.479391637837496 0 0 0
1086 136 6 0.19089 7.499396342641735 6.405633606926627 15.079744595580383 0 0 0
1071 134 6 0.19089 4.373231510976932 12.291077676362354 15.817423146198268 0 0 0
1087 136 6 0.19089 6.436772774744545 7.959321365254849 15.108623948456042 0 0 0
96 12 6 0.1559 12.205366484074318 7.477420440293992 11.923057410649415 0 0 0
1081 136 1 -0.38353 6.676733600949802 6.978956242680416 15.52763263422038 0 0 0
91 12 3 0.512161 14.104253113164754 8.620236459678749 12.255938666751746 0 0 0
1236 155 4 -0.488411 1.49939255580244 9.286112172047261 17.72014697864589 1 0 0
1132 142 4 -0.488411 12.062683929283633 9.247153939167545 19.083288042607084 0 0 0
1029 129 5 -0.008385 9.20281021216443 4.78010929207824 19.800270135795962 0 0 0
845 106 5 -0.008385 11.562865820249923 2.289256334762905 12.685017131842153 0 1 0
2002 251 2 -0.169515 0.8835251102861246 1.3699650945713056 19.792882863974867 1 1 0
1810 227 2 -0.169515 8.79606194200085 1.7968646992787496 19.902552089904503 0 1 0
55 7 6 0.19089 8.47782000126984 11.992707973197259 15.791389889249158 0 0 0
5774 0 8 0 12.111206305105481 9.440094664058037 18.806030637413393 0 0 0
1234 155 2 -0.169515 1.394999211686219 10.379500325771907 19.85484194190306 1 0 0
2001 251 1 -0.38353 1.3041766772245442 1.8551160671290774 20.947401363448424 1 1 0
92 12 4 -0.488411 13.753105420476897 9.31295399071491 13.200957593036883 0 0 0
226 29 2 -0.169515 3.4277816758007504 7.786769733725558 13.734463151797932 1 0 0
5785 0 8 0 2.97445070695416 4.819986664049751 18.01608863726628 0 0 0
80 10 6 0.1559 10.896295309372364 11.51562524322479 11.972212213512138 0 0 0
1068 134 4 -0.488411 4.744573670199225 9.270991051765243 19.09266383058597 0 0 0
1043 131 3 0.512161 8.538416325044174 9.624364210919286 18.955628796016864 0 0 0
1027 129 3 0.512161 9.84213741925039 5.235801271561028 19.007374609160774 0 0 0
1044 131 4 -0.488411 8.688528366913301 9.271715636123627 17.80862833208229 0 0 0
38 5 6 0.19089 9.333922036493894 8.106182237285704 15.865151713767435 0 0 0
1801 226 1 -0.38353 5.02810521036018 2.6783184852882194 21.225980280013104 0 1 0
1221 153 5 -0.008385 3.493231331956191 4.263754344730303 19.853853195534523 1 0 0
1028 129 4 -0.488411 10.07671165918601 4.62605240573032 17.9805689925254 0 0 0
1011 127 3 0.512161 1.2842280138737272 3.831432511916263 13.358941060431272 1 1 0
1067 134 3 0.512161 5.097934943734888 9.668458775585787 17.98048018918119 0 0 0
1088 136 6 0.1559 5.355354251772443 7.231886018724051 17.138083214346413 0 0 0
1816 227 6 0.1559 9.694649561932406 2.06062512284093 19.384492495639403 0 1 0
1840 230 6 0.1559 4.950172540970168 2.474764746580799 17.782451250281714 0 1 0
1084 136 4 -0.488411 6.15898553152604 5.052257193666439 18.45245994520085 0 0 0
247 31 6 0.19089 1.5299495836104882 11.008070577105716 15.545163138058525 1 0 0
1136 142 6 0.1559 11.159933965798157 11.465147327927163 17.945501353440914 0 0 0