variable        mytemp index 200.0
variable	dt index 1.0
variable        coeff1 equal 22.0
variable        eta equal 0.1
variable        lbdv equal 0.9
variable        lbdc equal 0.7
variable 	lbda equal 0.5

variable 	scale_gauss equal ${coeff1}*((v_lbda)^2)*((1.0-v_lbda)^3)
variable 	scale_gauss equal 22*((v_lbda)^2)*((1.0-v_lbda)^3)

if "${lbda} <= ${lbdv}" then     "variable scale_lj equal (1.0-${eta})*(-3.0*((v_lbda/${lbdv})^4)+8.0*((v_lbda/${lbdv})^3)-6.0*((v_lbda/${lbdv})^2))+1.0" else     "variable scale_lj equal ${eta}"
variable scale_lj equal (1.0-${eta})*(-3.0*((v_lbda/${lbdv})^4)+8.0*((v_lbda/${lbdv})^3)-6.0*((v_lbda/${lbdv})^2))+1.0
variable scale_lj equal (1.0-0.1)*(-3.0*((v_lbda/${lbdv})^4)+8.0*((v_lbda/${lbdv})^3)-6.0*((v_lbda/${lbdv})^2))+1.0
variable scale_lj equal (1.0-0.1)*(-3.0*((v_lbda/0.9)^4)+8.0*((v_lbda/${lbdv})^3)-6.0*((v_lbda/${lbdv})^2))+1.0
variable scale_lj equal (1.0-0.1)*(-3.0*((v_lbda/0.9)^4)+8.0*((v_lbda/0.9)^3)-6.0*((v_lbda/${lbdv})^2))+1.0
variable scale_lj equal (1.0-0.1)*(-3.0*((v_lbda/0.9)^4)+8.0*((v_lbda/0.9)^3)-6.0*((v_lbda/0.9)^2))+1.0

if "${lbda} <= ${lbdc}" then     "variable scale_coul equal (1.0-(${eta})^2)*(-3.0*((v_lbda/${lbdc})^4)+8.0*((v_lbda/${lbdc})^3)-6.0*((v_lbda/${lbdc})^2))+1.0" else     "variable scale_coul equal (${eta})^2"
variable scale_coul equal (1.0-(${eta})^2)*(-3.0*((v_lbda/${lbdc})^4)+8.0*((v_lbda/${lbdc})^3)-6.0*((v_lbda/${lbdc})^2))+1.0
variable scale_coul equal (1.0-(0.1)^2)*(-3.0*((v_lbda/${lbdc})^4)+8.0*((v_lbda/${lbdc})^3)-6.0*((v_lbda/${lbdc})^2))+1.0
variable scale_coul equal (1.0-(0.1)^2)*(-3.0*((v_lbda/0.7)^4)+8.0*((v_lbda/${lbdc})^3)-6.0*((v_lbda/${lbdc})^2))+1.0
variable scale_coul equal (1.0-(0.1)^2)*(-3.0*((v_lbda/0.7)^4)+8.0*((v_lbda/0.7)^3)-6.0*((v_lbda/${lbdc})^2))+1.0
variable scale_coul equal (1.0-(0.1)^2)*(-3.0*((v_lbda/0.7)^4)+8.0*((v_lbda/0.7)^3)-6.0*((v_lbda/0.7)^2))+1.0

units           real
special_bonds   lj 0.0 0.0 0.5 coul 0.0 0.0 0.8333
#neighbor        2.0 bin
#neigh_modify    delay 0 every 1 check yes page 1000000 one 20000
atom_style      full
pair_style	 hybrid/overlay lj/cut 12.0 coul/long 12.0 gauss 12.0

bond_style	 harmonic
dihedral_style	 charmm
angle_style	 harmonic
improper_style	 cvff

read_restart    restart.ar.1.500000
Reading restart file ...
  restart file = 29 Sep 2021, LAMMPS = 29 Sep 2021
  restoring atom style full from restart
  triclinic box = (0.0000000 0.0000000 0.0000000) to (29.099537 37.183529 42.955144) with tilt (-0.010059113 -0.061701004 0.034694816)
  2 by 3 by 4 MPI processor grid
  restoring pair style hybrid/overlay from restart
  restoring bond style harmonic from restart
  restoring angle style harmonic from restart
  restoring dihedral style charmm from restart
  restoring improper style cvff from restart
  6144 atoms
  3584 bonds
  4608 angles
  4096 dihedrals
  1536 impropers
Finding 1-2 1-3 1-4 neighbors ...
  special bond factors lj:    0        0        0.5     
  special bond factors coul:  0        0        0.8333  
     3 = max # of 1-2 neighbors
     4 = max # of 1-3 neighbors
     6 = max # of 1-4 neighbors
     7 = max # of special neighbors
  special bonds CPU = 0.001 seconds
  read_restart CPU = 0.021 seconds

kspace_style    pppm 1E-4
kspace_modify   mesh 32 32 32
pair_modify     mix arithmetic tail yes

timestep        ${dt}
timestep        1.0

# para obter essas coeficientes usar o comando "write_coeff file.coeff" em simulação nvt ou npt sem hybrid style
pair_coeff      * * coul/long

pair_coeff      1 7 none
pair_coeff      2 7 none
pair_coeff      3 7 none
pair_coeff      4 7 none
pair_coeff      5 7 none
pair_coeff      6 7 none
pair_coeff      7 7 none
pair_coeff      1 8 none
pair_coeff      2 8 none
pair_coeff      3 8 none
pair_coeff      4 8 none
pair_coeff      5 8 none
pair_coeff      6 8 none
pair_coeff      7 8 none
pair_coeff      8 8 none

pair_coeff      1 7 gauss 2.94 0.9 12
pair_coeff      2 7 gauss 2.94 0.9 12
pair_coeff      3 7 gauss 2.94 0.9 12
pair_coeff      4 8 gauss 2.94 0.9 12

pair_coeff 	1 1 lj/cut 0.086 3.39967 12
pair_coeff 	1 2 lj/cut 0.086 3.39967 12
pair_coeff 	1 3 lj/cut 0.086 3.39967 12
pair_coeff 	1 4 lj/cut 0.134387 3.17979 12
pair_coeff 	1 5 lj/cut 0.0359166 2.95511 12
pair_coeff 	1 6 lj/cut 0.0359166 2.99965 12
pair_coeff 	2 2 lj/cut 0.086 3.39967 12
pair_coeff 	2 3 lj/cut 0.086 3.39967 12
pair_coeff 	2 4 lj/cut 0.134387 3.17979 12
pair_coeff 	2 5 lj/cut 0.0359166 2.95511 12
pair_coeff 	2 6 lj/cut 0.0359166 2.99965 12
pair_coeff 	3 3 lj/cut 0.086 3.39967 12
pair_coeff 	3 4 lj/cut 0.134387 3.17979 12
pair_coeff 	3 5 lj/cut 0.0359166 2.95511 12
pair_coeff 	3 6 lj/cut 0.0359166 2.99965 12
pair_coeff 	4 4 lj/cut 0.21 2.95992 12
pair_coeff 	4 5 lj/cut 0.0561249 2.73523 12
pair_coeff 	4 6 lj/cut 0.0561249 2.77978 12
pair_coeff 	5 5 lj/cut 0.015 2.51055 12
pair_coeff 	5 6 lj/cut 0.015 2.55509 12
pair_coeff 	6 6 lj/cut 0.015 2.59964 12


velocity        all zero linear units box

group   	mobile type <> 1 6
4096 atoms in group mobile
group   	stat   type <> 7 8
2048 atoms in group stat

fix            1a all recenter INIT INIT INIT units box

fix            1 mobile nvt temp ${mytemp} ${mytemp} $(100.0*dt)
fix            1 mobile nvt temp 200.0 ${mytemp} $(100.0*dt)
fix            1 mobile nvt temp 200.0 200.0 $(100.0*dt)
fix            1 mobile nvt temp 200.0 200.0 100
Resetting global fix info from restart file:
  fix style: nvt, fix ID: 1
dump           1 all custom 10000 ${NAME}.lammpstrj id type x y z
dump           1 all custom 10000 ar.lammpstrj id type x y z

fix            2 mobile adapt 1 pair lj/cut epsilon 1*6 1*6 v_scale_lj scale yes
compute        lj all pair lj/cut

fix            3 mobile adapt 1 pair coul/long scale 1*6 1*6 v_scale_coul kspace v_scale_coul scale yes
compute        coul all pair coul/long

fix             4 all adapt 1 pair gauss a 1*3 7 v_scale_gauss scale yes
fix             5 all adapt 1 pair gauss a 4 8 v_scale_gauss scale yes
compute         gauss all pair gauss


thermo_style    custom step vol temp press ke pe etotal enthalpy evdwl etail ecoul elong v_lbda v_scale_lj v_scale_coul v_scale_gauss c_lj c_coul c_gauss
thermo          200

run             2000000
PPPM initialization ...
  using 12-bit tables for long-range coulomb (../kspace.cpp:340)
  G vector (1/distance) = 0.26230706
  grid = 32 32 32
  stencil order = 5
  estimated absolute RMS force accuracy = 0.00030983815
  estimated relative force accuracy = 9.3306838e-07
  using double precision KISS FFT
  3d grid and FFT values/proc = 6210 2048
All restart file global fix info was re-assigned
WARNING: Fix recenter should come after all other integration fixes (../fix_recenter.cpp:133)
Neighbor list info ...
  update every 1 steps, delay 10 steps, check yes
  max neighbors/atom: 2000, page size: 100000
  master list distance cutoff = 14
  ghost atom cutoff = 14
  binsize = 7, bins = 5 6 7
  4 neighbor lists, perpetual/occasional/extra = 4 0 0
  (1) pair lj/cut, perpetual, skip from (4)
      attributes: half, newton on
      pair build: skip
      stencil: none
      bin: none
  (2) pair coul/long, perpetual, copy from (1)
      attributes: half, newton on
      pair build: copy
      stencil: none
      bin: none
  (3) pair gauss, perpetual, skip from (4)
      attributes: half, newton on
      pair build: skip
      stencil: none
      bin: none
  (4) neighbor class addition, perpetual
      attributes: half, newton on
      pair build: half/bin/newton/tri
      stencil: half/bin/3d/tri
      bin: standard
Per MPI rank memory allocation (min/avg/max) = 13.74 | 13.77 | 13.84 Mbytes
Step Volume Temp Press KinEng PotEng TotEng Enthalpy E_vdwl E_tail E_coul E_long v_lbda v_scale_lj v_scale_coul v_scale_gauss c_lj c_coul c_gauss 
  500000    46478.474    132.90615    524.70236      2433.66   -2814.3419   -380.68185   -25.017145   -5282.2457   -25.968565    2124.2143   -1604.8692          0.5   0.31069959  0.082569763       0.6875   -802.40285    2124.2143   -4453.8743 
  500200    46478.474    132.68152    1252.1806    2429.5467   -2849.1635    -419.6168    429.16239   -5273.5423   -25.968565    2123.3424   -1605.0747          0.5   0.31069959  0.082569763       0.6875   -800.35627    2123.3424   -4447.2174 
  500400    46478.474    132.48379    2321.4736     2425.926   -2878.0659   -452.13987    1121.4498   -5295.2068   -25.968565    2124.1628   -1604.7688          0.5   0.31069959  0.082569763       0.6875   -800.09519    2124.1628   -4469.1431 
  500600    46478.474    134.62837    1731.9655    2465.1958    -2807.887   -342.69122    831.30575   -5270.0829   -25.968565    2125.6579   -1605.0179          0.5   0.31069959  0.082569763       0.6875   -802.30744    2125.6579   -4441.8069 
  500800    46478.474    134.25221    1047.9667    2458.3078   -2853.8829   -395.57506    314.77962   -5273.2921   -25.968565    2125.1608   -1604.8883          0.5   0.31069959  0.082569763       0.6875   -794.36402    2125.1608   -4452.9595 
  501000    46478.474    133.32225    933.58704    2441.2792   -2871.8947   -430.61542    202.20803   -5281.5909   -25.968565    2124.0442   -1604.9893          0.5   0.31069959  0.082569763       0.6875   -805.17325    2124.0442   -4450.4491 
  501200    46478.474    133.41412    1017.3009    2442.9614   -2815.5288   -372.56736    317.00075   -5282.5045   -25.968565    2125.8793   -1604.6117          0.5   0.31069959  0.082569763       0.6875   -799.38922    2125.8793   -4457.1467 
  501400    46478.474    131.81671    986.55782     2413.711   -2890.0523   -476.34123    192.38797   -5287.6516   -25.968565    2125.5176   -1604.9467          0.5   0.31069959  0.082569763       0.6875   -814.93721    2125.5176   -4446.7458 
  501600    46478.474    132.72257    109.97057    2430.2984   -2861.9647   -431.66629   -357.12374   -5300.0611   -25.968565    2122.3669   -1604.9502          0.5   0.31069959  0.082569763       0.6875   -812.19293    2122.3669   -4461.8996 
  501800    46478.474    130.66544    -82.81518    2392.6301   -2791.4071   -398.77701   -454.91252   -5255.2255   -25.968565     2123.265   -1604.8986          0.5   0.31069959  0.082569763       0.6875   -786.55635     2123.265   -4442.7006 
  502000    46478.474    134.36512    1984.1763    2460.3754    -2861.812   -401.43664    943.51915   -5261.8199   -25.968565    2124.8225   -1604.9118          0.5   0.31069959  0.082569763       0.6875    -794.1687    2124.8225   -4441.6826 
  502200    46478.474    134.17339    1559.9554    2456.8645   -2868.7648   -411.90035    645.50117   -5271.7302   -25.968565    2125.2155   -1604.9765          0.5   0.31069959  0.082569763       0.6875   -788.18558    2125.2155   -4457.5761 
  502400    46478.474    132.08875    341.62446    2418.6925   -2843.8895   -425.19704   -193.63002   -5266.5284   -25.968565    2123.5238   -1604.9704          0.5   0.31069959  0.082569763       0.6875   -794.70115    2123.5238   -4445.8587 
  502600    46478.474    135.59148    501.28372    2482.8313   -2869.3835   -386.55213   -46.761537   -5285.4435   -25.968565    2124.5217   -1604.8748          0.5   0.31069959  0.082569763       0.6875    -799.9401    2124.5217   -4459.5348 
  502800    46478.474    134.12543    1851.6323    2455.9864   -2815.5169   -359.53048    895.58153   -5257.5028   -25.968565    2125.2439   -1605.0375          0.5   0.31069959  0.082569763       0.6875   -797.35576    2125.2439   -4434.1785 
  503000    46478.474    134.34193     1980.993    2459.9506   -2929.8719   -469.92128    872.87671   -5291.2485   -25.968565     2125.415   -1604.3237          0.5   0.31069959  0.082569763       0.6875   -802.72131     2125.415   -4462.5586 
  503200    46478.474    132.35642    1168.1953    2423.5937   -2797.0897   -373.49595    418.35458   -5261.4967   -25.968565    2124.8281   -1604.9832          0.5   0.31069959  0.082569763       0.6875    -800.2351    2124.8281   -4435.2931 
  503400    46478.474    134.35485    1201.9071    2460.1872   -2854.1095   -393.92224    420.77951   -5285.0424   -25.968565     2123.437   -1604.9737          0.5   0.31069959  0.082569763       0.6875   -804.19765     2123.437   -4454.8762 
  503600    46478.474    133.12309    646.85942    2437.6323   -2862.2169   -424.58456    13.883183   -5273.2297   -25.968565    2125.8658   -1605.0278          0.5   0.31069959  0.082569763       0.6875   -809.77929    2125.8658   -4437.4819 
  503800    46478.474    136.70224    613.25058    2503.1707   -2801.9465   -298.77587    116.91044   -5250.2955   -25.968565    2126.3512   -1604.3908          0.5   0.31069959  0.082569763       0.6875   -790.05704    2126.3512   -4434.2699 
  504000    46478.474     135.1746   -180.59019    2475.1978   -2863.9861   -388.78827   -511.19968   -5263.9449   -25.968565     2124.071   -1604.9483          0.5   0.31069959  0.082569763       0.6875    -795.2752     2124.071   -4442.7011 
  504200    46478.474    132.67369    39.210205    2429.4034   -2852.8247   -423.42133   -396.84305   -5253.0813   -25.968565    2127.1395   -1605.0482          0.5   0.31069959  0.082569763       0.6875   -795.22792    2127.1395   -4431.8848 
  504400    46478.474    136.52786    389.83284    2499.9775   -2828.8246   -328.84708   -64.602452   -5256.0268   -25.968565    2124.4974   -1604.8598          0.5   0.31069959  0.082569763       0.6875   -784.04893    2124.4974   -4446.0093 
  504600    46478.474    134.20311    1251.1447    2457.4087    -2856.808   -399.39937    448.67761   -5258.0503   -25.968565    2125.3183   -1604.9569          0.5   0.31069959  0.082569763       0.6875   -789.57925    2125.3183   -4442.5024 
  504800    46478.474    134.31596    1452.0493    2459.4751    -2857.668   -398.19288    586.06546    -5280.859   -25.968565    2126.6595   -1605.2418          0.5   0.31069959  0.082569763       0.6875    -807.2724    2126.6595   -4447.6181 
  505000    46478.474    132.59435    1872.6906    2427.9505   -2882.8686   -454.91811    814.46811   -5272.5844   -25.968565    2123.0515   -1604.6945          0.5   0.31069959  0.082569763       0.6875   -807.05719    2123.0515   -4439.5586 
  505200    46478.474    133.36502    1197.8143    2442.0623   -2883.3663   -441.30393    370.62358   -5293.9946   -25.968565    2123.1958   -1605.0816          0.5   0.31069959  0.082569763       0.6875   -799.38926    2123.1958   -4468.6368 
  505400    46478.474    134.53105     -374.069    2463.4136   -2825.2584   -361.84475   -615.40401   -5251.3429   -25.968565    2123.8978   -1604.9749          0.5   0.31069959  0.082569763       0.6875   -800.92783    2123.8978   -4424.4465 
  505600    46478.474    133.71314    342.25632    2448.4369   -2876.2226   -427.78572    -195.7904   -5270.0386   -25.968565    2125.3052   -1604.8018          0.5   0.31069959  0.082569763       0.6875   -793.89546    2125.3052   -4450.1746 
  505800    46478.474     134.0588    809.27149    2454.7663   -2882.5295   -427.76314    120.79415   -5286.1286   -25.968565    2125.0454    -1604.857          0.5   0.31069959  0.082569763       0.6875     -811.248    2125.0454    -4448.912 
  506000    46478.474    132.81927    1300.1882    2432.0691   -2828.4342   -396.36514    484.95555   -5255.7755   -25.968565     2124.722   -1604.8832          0.5   0.31069959  0.082569763       0.6875   -800.37327     2124.722   -4429.4337 
  506200    46478.474    131.74361     1714.801    2412.3726   -2800.1163   -387.74368    774.61849   -5260.2979   -25.968565    2126.3489   -1604.5332          0.5   0.31069959  0.082569763       0.6875   -795.05278    2126.3489   -4439.2766 
  506400    46478.474    131.62192    2034.7071    2410.1443   -2869.6302   -459.48586    919.72175   -5285.2767   -25.968565    2124.4799    -1604.535          0.5   0.31069959  0.082569763       0.6875   -802.76288    2124.4799   -4456.5452 
  506600    46478.474     134.0497    2136.5686    2454.5997   -2832.5032    -377.9035      1070.35   -5260.0847   -25.968565    2128.3301   -1604.7141          0.5   0.31069959  0.082569763       0.6875   -790.78421    2128.3301   -4443.3319 
  506800    46478.474    134.28468    833.19019    2458.9024    -2829.977   -371.07455     193.6958   -5244.3722   -25.968565    2127.0334   -1604.6931          0.5   0.31069959  0.082569763       0.6875   -790.10066    2127.0334    -4428.303 
  507000    46478.474    133.15591    415.14974    2438.2333   -2923.1784   -484.94511   -203.53965   -5267.0538   -25.968565    2126.0746    -1604.391          0.5   0.31069959  0.082569763       0.6875   -795.40923    2126.0746   -4445.6761 
  507200    46478.474     133.2348    1561.5314    2439.6778   -2893.6462   -453.96834    604.50145   -5281.1827   -25.968565    2124.5783   -1604.6733          0.5   0.31069959  0.082569763       0.6875   -799.37523    2124.5783   -4455.8389 
  507400    46478.474    133.51744    901.88324    2444.8534   -2824.3274   -379.47399    231.85932   -5262.6376   -25.968565    2125.2782   -1604.7025          0.5   0.31069959  0.082569763       0.6875   -804.18726    2125.2782   -4432.4817 
  507600    46478.474      132.323    157.40505    2422.9818   -2842.4991   -419.51729   -312.82172   -5277.7747   -25.968565    2124.2108   -1604.9949          0.5   0.31069959  0.082569763       0.6875   -798.01095    2124.2108   -4453.7952 
  507800    46478.474    132.84754    412.77098    2432.5867   -2888.0377   -455.45091   -175.65787   -5272.4736   -25.968565    2123.1578   -1605.0764          0.5   0.31069959  0.082569763       0.6875   -796.10419    2123.1578   -4450.4008 
  508000    46478.474    132.89972    1136.7773    2433.5421   -2846.6217   -413.07957    357.47456   -5263.9305   -25.968565    2126.3192    -1604.749          0.5   0.31069959  0.082569763       0.6875   -790.05786    2126.3192    -4447.904 
  508200    46478.474    136.00533    913.17806    2490.4094   -2835.4484   -345.03904    273.95036   -5272.0476   -25.968565    2125.1682   -1604.6561          0.5   0.31069959  0.082569763       0.6875    -797.6614    2125.1682   -4448.4176 
  508400    46478.474     134.2827    622.95699    2458.8661   -2917.8147   -458.94857   -36.682863   -5276.5341   -25.968565    2124.5676   -1604.9266          0.5   0.31069959  0.082569763       0.6875   -801.94461    2124.5676   -4448.6209 
  508600    46478.474    134.38929    1701.2955     2460.818   -2851.4665   -390.64852    762.55909   -5271.9088   -25.968565    2124.2692   -1604.5865          0.5   0.31069959  0.082569763       0.6875   -787.60214    2124.2692   -4458.3381 
  508800    46478.474    136.50698    2367.9516    2499.5953   -2785.5581   -285.96284    1319.1315   -5260.8943   -25.968565    2125.0495     -1604.94          0.5   0.31069959  0.082569763       0.6875   -796.66978    2125.0495   -4438.2559 
  509000    46478.474    132.35046     1682.283    2423.4847   -2797.3265   -373.84179    766.47837   -5255.6767   -25.968565    2126.3134    -1604.602          0.5   0.31069959  0.082569763       0.6875   -799.06681    2126.3134   -4430.6413 
  509200    46478.474    133.05669    588.24634    2436.4166   -2868.1591   -431.74251   -33.005098   -5274.3005   -25.968565    2123.6448   -1604.7921          0.5   0.31069959  0.082569763       0.6875   -790.69143    2123.6448   -4457.6405 
  509400    46478.474    131.46315    1103.9198    2407.2369   -2828.5532   -421.31632    326.96563   -5277.0111   -25.968565    2126.0518   -1604.6928          0.5   0.31069959  0.082569763       0.6875    -804.2337    2126.0518   -4446.8088 
  509600    46478.474    134.62957    1335.1944    2465.2177   -2812.5636    -347.3459    557.70345   -5262.0394   -25.968565    2126.3771    -1604.543          0.5   0.31069959  0.082569763       0.6875   -806.71821    2126.3771   -4429.3526 
  509800    46478.474    132.91546    1499.1628    2433.8305   -2899.3799   -465.54942    550.64437   -5295.3664   -25.968565    2126.5576   -1604.8557          0.5   0.31069959  0.082569763       0.6875   -808.64861    2126.5576   -4460.7492 
  510000    46478.474    131.95594    1640.1764    2416.2606   -2849.6668   -433.40616    678.37245   -5284.2025   -25.968565    2125.8808   -1604.7217          0.5   0.31069959  0.082569763       0.6875    -801.0721    2125.8808   -4457.1619 
  510200    46478.474    132.54876    1707.0964    2427.1157   -2802.9756   -375.85995    781.27973   -5264.5851   -25.968565    2128.0867   -1604.7899          0.5   0.31069959  0.082569763       0.6875   -804.49377    2128.0867   -4434.1228 
  510400    46478.474    130.76914    2401.8256    2394.5289   -2858.7484   -464.21943    1163.8361   -5280.0359   -25.968565    2124.9853   -1604.6165          0.5   0.31069959  0.082569763       0.6875   -805.39313    2124.9853   -4448.6742 
  510600    46478.474    134.49177    1646.3566    2462.6944    -2888.701   -426.00657    689.96122   -5270.7152   -25.968565    2125.3085   -1604.7243          0.5   0.31069959  0.082569763       0.6875   -800.45527    2125.3085   -4444.2914 
  510800    46478.474    134.06583    993.73896    2454.8949   -2845.2723   -390.37737    283.21951   -5282.4577   -25.968565    2124.1195   -1604.8463          0.5   0.31069959  0.082569763       0.6875   -794.50993    2124.1195   -4461.9792 
  511000    46478.474    130.99089    1121.9676    2398.5894    -2845.129   -446.53958    313.97589    -5277.542   -25.968565    2124.9256   -1604.9204          0.5   0.31069959  0.082569763       0.6875   -804.00618    2124.9256   -4447.5672 
  511200    46478.474     132.4521    1461.3022    2425.3457   -2843.7662   -418.42045    572.10986   -5281.6063   -25.968565    2122.8989   -1605.0147          0.5   0.31069959  0.082569763       0.6875   -801.10242    2122.8989   -4454.5353 
  511400    46478.474    133.47804    645.56138    2444.1318   -2809.8261    -365.6943     71.89358   -5279.9384   -25.968565    2123.9238   -1604.8004          0.5   0.31069959  0.082569763       0.6875   -801.87045    2123.9238   -4452.0994 
  511600    46478.474    130.57699    474.09102    2391.0105   -2860.0986   -469.08812   -147.72985   -5279.2128   -25.968565    2124.1648   -1604.7268          0.5   0.31069959  0.082569763       0.6875   -804.84151    2124.1648   -4448.4027 
  511800    46478.474    134.08319    1747.0357    2455.2129   -2847.6417   -392.42887    791.78329   -5288.9975   -25.968565    2123.3687   -1604.9699          0.5   0.31069959  0.082569763       0.6875   -807.51566    2123.3687   -4455.5132 
  512000    46478.474    134.96954    2728.7522    2471.4429   -2833.6737   -362.23079    1487.4289   -5264.6847   -25.968565    2125.4681   -1605.0727          0.5   0.31069959  0.082569763       0.6875   -791.27259    2125.4681   -4447.4435 
  512200    46478.474    128.71828    1705.3092    2356.9754    -2840.884    -483.9086    672.01968   -5281.2687   -25.968565    2126.1146   -1604.5423          0.5   0.31069959  0.082569763       0.6875   -795.92099    2126.1146   -4459.3791 
  512400    46478.474    134.90657    786.65103    2470.2899   -2850.5984    -380.3085    152.91572   -5279.8235   -25.968565    2123.9264   -1604.7317          0.5   0.31069959  0.082569763       0.6875   -809.17101    2123.9264   -4444.6839 
  512600    46478.474    134.79861    1411.6083     2468.313   -2875.2709   -406.95789    549.88791   -5294.8645   -25.968565    2122.2822   -1605.1374          0.5   0.31069959  0.082569763       0.6875   -809.54008    2122.2822   -4459.3558 
  512800    46478.474    131.91876    1084.0944    2415.5796   -2883.8989   -468.31926    266.52423   -5297.5819   -25.968565    2124.0678   -1605.0696          0.5   0.31069959  0.082569763       0.6875   -805.34237    2124.0678    -4466.271 
  513000    46478.474    131.13438    121.43838    2401.2168   -2806.5054   -405.28857   -322.97268   -5277.3914   -25.968565    2125.2615   -1604.7347          0.5   0.31069959  0.082569763       0.6875   -801.18249    2125.2615   -4450.2404 
  513200    46478.474    133.29422    187.61986     2440.766   -2830.5393   -389.77324   -262.59684   -5278.1327   -25.968565     2122.792   -1604.6076          0.5   0.31069959  0.082569763       0.6875   -787.90236     2122.792   -4464.2618 
  513400    46478.474    133.79082    1611.0164    2449.8593   -2886.8249   -436.96563    655.04709   -5275.3297   -25.968565    2126.1412   -1604.8734          0.5   0.31069959  0.082569763       0.6875   -796.69369    2126.1412   -4452.6675 
  513600    46478.474    133.75566     1781.293    2449.2154    -2861.373   -412.15756    795.27566   -5300.1798   -25.968565    2123.4413   -1604.8883          0.5   0.31069959  0.082569763       0.6875   -804.94164    2123.4413   -4469.2696 
  513800    46478.474    136.16101    949.65374      2493.26   -2845.8891   -352.62902    291.08509   -5286.8878   -25.968565    2123.7986   -1604.8813          0.5   0.31069959  0.082569763       0.6875   -804.28615    2123.7986   -4456.6331 
  514000    46478.474    131.38551    1422.4453    2405.8154   -2852.3021   -446.48668    517.70486   -5281.6012   -25.968565    2124.8063   -1605.1043          0.5   0.31069959  0.082569763       0.6875   -794.55145    2124.8063   -4461.0812 
  514200    46478.474    132.45387    1772.7433    2425.3782   -2884.9557   -459.57756     742.0603   -5286.6366   -25.968565    2121.7674   -1604.9482          0.5   0.31069959  0.082569763       0.6875   -790.84948    2121.7674   -4469.8186 
  514400    46478.474    135.69908    2022.8354    2484.8016   -2816.2956   -331.49399    1039.6665   -5279.2354   -25.968565    2124.7733   -1604.9963          0.5   0.31069959  0.082569763       0.6875   -794.08563    2124.7733   -4459.1812 
  514600    46478.474    132.46732    539.12368    2425.6246   -2852.5668   -426.94223   -61.502166   -5274.8886   -25.968565    2125.7128   -1604.5152          0.5   0.31069959  0.082569763       0.6875   -798.04546    2125.7128   -4450.8746 
  514800    46478.474    134.13291    116.20635    2456.1232   -2894.6053   -438.48211   -359.71269    -5291.088   -25.968565    2120.7403   -1605.1296          0.5   0.31069959  0.082569763       0.6875   -800.02823    2120.7403   -4465.0912 
  515000    46478.474    132.60745    1190.7885    2428.1904    -2866.706   -438.51556    368.64953   -5294.0797   -25.968565    2124.6546   -1604.9746          0.5   0.31069959  0.082569763       0.6875   -807.86997    2124.6546   -4460.2412 
  515200    46478.474    133.11902    1361.4192    2437.5579    -2799.474   -361.91614    560.90943   -5283.0134   -25.968565    2123.9846   -1605.0441          0.5   0.31069959  0.082569763       0.6875   -808.86442    2123.9846   -4448.1804 
  515400    46478.474    133.07778    1530.4215    2436.8026   -2886.7535   -449.95092    587.43134   -5295.8273   -25.968565    2125.5756   -1604.6307          0.5   0.31069959  0.082569763       0.6875   -806.54766    2125.5756    -4463.311 
  515600    46478.474    130.90457    2413.1204    2397.0088   -2854.0376   -457.02877    1178.6829   -5275.9062   -25.968565    2124.2607   -1605.0364          0.5   0.31069959  0.082569763       0.6875   -793.00927    2124.2607   -4456.9284 
  515800    46478.474    134.05857    2633.9489     2454.762   -2845.1673   -390.40528    1394.9929   -5268.2035   -25.968565     2125.027   -1604.9286          0.5   0.31069959  0.082569763       0.6875   -801.12286     2125.027   -4441.1121 
  516000    46478.474    131.56006    2574.6476    2409.0114   -2861.8433   -452.83186    1292.3695    -5279.903   -25.968565    2126.6558   -1604.6116          0.5   0.31069959  0.082569763       0.6875   -787.00113    2126.6558   -4466.9333 
  516200    46478.474    130.30431    1671.1331    2386.0174   -2811.5014   -425.48403    707.27827   -5272.8489   -25.968565     2125.123   -1604.8319          0.5   0.31069959  0.082569763       0.6875   -799.62219     2125.123   -4447.2581 
  516400    46478.474    133.33459    1186.2545    2441.5052   -2844.7038   -403.19862    400.89314   -5272.1393   -25.968565    2126.6773   -1604.9873          0.5   0.31069959  0.082569763       0.6875   -794.80083    2126.6773   -4451.3699 
  516600    46478.474    132.56018   -82.226938    2427.3249   -2861.2643   -433.93946   -489.67623   -5267.0618   -25.968565    2123.4374   -1604.9587          0.5   0.31069959  0.082569763       0.6875   -798.43392    2123.4374   -4442.6593 
  516800    46478.474    134.40412    868.79758    2461.0895   -2823.9377   -362.84818    226.05832   -5273.6212   -25.968565    2124.5095    -1604.868          0.5   0.31069959  0.082569763       0.6875   -787.53119    2124.5095   -4460.1215 
  517000    46478.474    134.95993    1999.4302     2471.267   -2891.1258    -419.8588    935.43667   -5300.2829   -25.968565    2125.4175   -1605.0241          0.5   0.31069959  0.082569763       0.6875   -797.50046    2125.4175   -4476.8139 
  517200    46478.474    130.81631    1497.4998    2395.3926   -2861.9805    -466.5879    548.47866   -5295.9741   -25.968565    2122.7678   -1605.0447          0.5   0.31069959  0.082569763       0.6875   -799.82262    2122.7678   -4470.1829 
  517400    46478.474    133.57902    712.40796     2445.981   -2813.3166   -367.33561    115.56361   -5277.7207   -25.968565    2123.9001   -1604.7124          0.5   0.31069959  0.082569763       0.6875   -792.68508    2123.9001    -4459.067 
  517600    46478.474     132.4834     1438.728    2425.9189   -2836.8742   -410.95533    564.27329   -5297.9523   -25.968565    2124.7188   -1604.7504          0.5   0.31069959  0.082569763       0.6875   -813.53254    2124.7188   -4458.4512 
  517800    46478.474    134.31777    2141.7998    2459.5083    -2872.286    -412.7777    1039.0217   -5297.0616   -25.968565    2125.3132   -1605.0024          0.5   0.31069959  0.082569763       0.6875   -806.73061    2125.3132   -4464.3624 
  518000    46478.474    130.94691    867.82259    2397.7841   -2824.1086   -426.32452    161.92109   -5277.4851   -25.968565     2123.767   -1605.2209          0.5   0.31069959  0.082569763       0.6875   -787.33033     2123.767   -4464.1862 
  518200    46478.474    133.10822    819.65348      2437.36   -2860.1027   -422.74263    132.85199   -5280.4527   -25.968565    2123.6805   -1604.9728          0.5   0.31069959  0.082569763       0.6875   -796.91405    2123.6805   -4457.5701 
  518400    46478.474    136.28804     1578.642    2495.5862   -2893.3969   -397.81074    672.25735   -5299.2175   -25.968565    2123.3528   -1605.3268          0.5   0.31069959  0.082569763       0.6875   -801.46859    2123.3528   -4471.7803 
  518600    46478.474    129.99055    1474.0741     2380.272   -2830.4872   -450.21519    548.97245   -5263.9975   -25.968565    2124.6558   -1605.0295          0.5   0.31069959  0.082569763       0.6875   -801.03311    2124.6558   -4436.9959 
  518800    46478.474    133.67117    589.40194    2447.6683   -2829.0719   -381.40364    18.117078   -5287.9469   -25.968565    2120.6896   -1605.2695          0.5   0.31069959  0.082569763       0.6875   -799.47729    2120.6896    -4462.501 
  519000    46478.474    132.38966    440.10437    2424.2024   -2883.7673   -459.56488   -161.24416   -5286.3946   -25.968565    2124.7924   -1604.9079          0.5   0.31069959  0.082569763       0.6875   -806.54422    2124.7924   -4453.8818 
  519200    46478.474    134.23491    1267.1099     2457.991   -2906.2628   -448.27183    410.62704   -5311.0686   -25.968565    2121.6081   -1605.2423          0.5   0.31069959  0.082569763       0.6875   -807.66239    2121.6081   -4477.4376 
  519400    46478.474    133.99232    2594.4906     2453.549   -2859.2225   -405.67354    1352.9782   -5266.3603   -25.968565    2126.4562    -1604.838          0.5   0.31069959  0.082569763       0.6875   -794.56598    2126.4562   -4445.8257 
  519600    46478.474    138.72487    1964.9092    2540.2071   -2805.8684   -265.66129    1066.2345   -5267.9149   -25.968565    2124.7526   -1605.1288          0.5   0.31069959  0.082569763       0.6875   -797.42104    2124.7526   -4444.5253 
  519800    46478.474    133.32605    813.26871    2441.3488   -2803.5675   -362.21873    189.04803   -5285.7542   -25.968565    2123.8925   -1605.0611          0.5   0.31069959  0.082569763       0.6875   -801.89027    2123.8925   -4457.8954 
  520000    46478.474    130.92475    1078.2629    2397.3782    -2859.252   -461.87382    269.01684   -5286.4069   -25.968565    2124.7158   -1605.1643          0.5   0.31069959  0.082569763       0.6875   -795.91119    2124.7158   -4464.5271 
  520200    46478.474    133.51964    1821.9357    2444.8937   -2845.8733    -400.9796    834.00289   -5266.6549   -25.968565    2125.3442   -1604.9969          0.5   0.31069959  0.082569763       0.6875   -790.24523    2125.3442   -4450.4411 
  520400    46478.474    133.59645    873.46439    2446.3002   -2845.3784   -399.07819    192.99166   -5262.2242   -25.968565    2124.8965   -1604.8777          0.5   0.31069959  0.082569763       0.6875   -794.56693    2124.8965   -4441.6887 
  520600    46478.474    133.99601    980.80618    2453.6164   -2866.3045   -412.68808    252.14242   -5290.8888   -25.968565    2121.1866   -1604.7527          0.5   0.31069959  0.082569763       0.6875    -795.3275    2121.1866   -4469.5928 
  520800    46478.474    133.96301    1552.1459    2453.0122   -2880.5491   -427.53693    624.57099   -5276.4532   -25.968565    2125.5768   -1604.7867          0.5   0.31069959  0.082569763       0.6875   -805.20342    2125.5768   -4445.2812 
  521000    46478.474    133.51843    1850.5236    2444.8714   -2839.0968   -394.22536    860.13512   -5276.0284   -25.968565    2124.2354   -1604.8347          0.5   0.31069959  0.082569763       0.6875   -792.27285    2124.2354    -4457.787 
  521200    46478.474    131.09751    1132.4605    2400.5417   -2898.2748   -497.73314    269.89487   -5286.6404   -25.968565    2121.0257   -1604.9774          0.5   0.31069959  0.082569763       0.6875   -800.30841    2121.0257   -4460.3635 
  521400    46478.474    135.19992    1089.2997    2475.6614   -2895.6366   -419.97523     318.3966    -5291.366   -25.968565    2124.6063   -1605.0345          0.5   0.31069959  0.082569763       0.6875   -799.61209    2124.6063   -4465.7854 
  521600    46478.474    133.19104    506.16966    2438.8767   -2830.0625   -391.18581   -48.083336    -5274.031   -25.968565    2125.7442   -1604.7284          0.5   0.31069959  0.082569763       0.6875   -800.59553    2125.7442   -4447.4669 
  521800    46478.474    132.21789   -72.255921    2421.0572   -2858.2722   -437.21504   -486.19306   -5283.2661   -25.968565    2124.8104   -1605.0536          0.5   0.31069959  0.082569763       0.6875   -804.16655    2124.8104    -4453.131 
  522000    46478.474    131.30891    226.13293    2404.4128   -2972.7465   -568.33367   -415.05153   -5314.1352   -25.968565    2123.0762    -1605.059          0.5   0.31069959  0.082569763       0.6875   -807.42789    2123.0762   -4480.7387 
  522200    46478.474    133.38172    547.66268    2442.3682   -2886.5041   -444.13588   -72.907734   -5270.2737   -25.968565    2124.1341    -1605.007          0.5   0.31069959  0.082569763       0.6875   -789.32535    2124.1341   -4454.9798 
  522400    46478.474    136.18613    415.90949      2493.72   -2859.2265   -365.50658   -83.586127   -5282.4491   -25.968565    2125.3809   -1604.6787          0.5   0.31069959  0.082569763       0.6875   -804.35023    2125.3809   -4452.1303 
  522600    46478.474    132.50087    355.50076    2426.2388   -2875.3668   -449.12799   -208.15505   -5276.3044   -25.968565    2124.7967   -1604.7013          0.5   0.31069959  0.082569763       0.6875   -811.98504    2124.7967   -4438.3508 
  522800    46478.474    132.41123     774.1296    2424.5975   -2820.6237   -396.02626    128.71042   -5276.7247   -25.968565    2125.4688   -1604.9146          0.5   0.31069959  0.082569763       0.6875   -805.28393    2125.4688   -4445.4722 
  523000    46478.474    132.96656     1374.887    2434.7661   -2732.5954   -297.82931    634.12527   -5234.6384   -25.968565    2128.2657   -1604.4448          0.5   0.31069959  0.082569763       0.6875   -789.61217    2128.2657   -4419.0576 
  523200    46478.474    135.25118    1369.5591       2476.6   -2849.0231   -372.42301    555.92011   -5286.0136   -25.968565    2123.0628   -1604.7779          0.5   0.31069959  0.082569763       0.6875   -793.56509    2123.0628   -4466.4799 
  523400    46478.474    134.03103    545.00135    2454.2578   -2894.6811   -440.42322   -70.999035   -5282.7833   -25.968565    2125.6932   -1604.9166          0.5   0.31069959  0.082569763       0.6875   -807.31394    2125.6932   -4449.5008 
  523600    46478.474     132.5161     650.7598    2426.5178   -2803.0475   -376.52977    64.581814   -5263.4808   -25.968565    2124.1432    -1604.968          0.5   0.31069959  0.082569763       0.6875     -789.492    2124.1432   -4448.0202 
  523800    46478.474    134.26211     1824.329    2458.4891   -2779.5849   -321.09576    915.50897   -5261.4918   -25.968565    2126.0688   -1604.8223          0.5   0.31069959  0.082569763       0.6875   -799.27225    2126.0688    -4436.251 
  524000    46478.474    133.67397    1873.8749    2447.7196   -2862.8023   -415.08268    855.10628   -5298.9811   -25.968565    2124.9292   -1605.0368          0.5   0.31069959  0.082569763       0.6875   -800.54904    2124.9292   -4472.4635 
  524200    46478.474     131.4782    886.31656    2407.5126   -2840.2724   -432.75979     168.0218   -5263.3184   -25.968565    2126.1888   -1604.6647          0.5   0.31069959  0.082569763       0.6875   -797.00235    2126.1888   -4440.3475 
  524400    46478.474    135.32294    1176.8853     2477.914   -2826.2882   -348.37419    449.36674   -5282.6889   -25.968565     2125.502   -1605.0219          0.5   0.31069959  0.082569763       0.6875   -802.79512     2125.502   -4453.9252 
  524600    46478.474    132.29795    1436.0183    2422.5231   -2836.9093   -414.38627     559.0056   -5268.9616   -25.968565    2127.0416   -1604.9496          0.5   0.31069959  0.082569763       0.6875   -790.67394    2127.0416   -4452.3191 
  524800    46478.474    129.80236    1234.1437     2376.826   -2834.1348   -457.30879    379.24423   -5275.0962   -25.968565    2127.7043   -1604.3052          0.5   0.31069959  0.082569763       0.6875    -797.5588    2127.7043   -4451.5689 
  525000    46478.474    132.20815    821.60624    2420.8788   -2858.6069   -437.72806    119.19022    -5262.145   -25.968565    2126.7525   -1604.6905          0.5   0.31069959  0.082569763       0.6875   -788.47629    2126.7525   -4447.7001 
  525200    46478.474    134.63475   -183.67507    2465.3126   -2847.5608   -382.24818   -506.75065   -5263.2517   -25.968565    2124.6783   -1604.8177          0.5   0.31069959  0.082569763       0.6875   -799.41822    2124.6783   -4437.8649 
  525400    46478.474    132.02109     925.7005    2417.4536   -2879.3705   -461.91688    165.56075   -5275.4744   -25.968565    2123.8052   -1604.7519          0.5   0.31069959  0.082569763       0.6875   -803.61604    2123.8052   -4445.8898 
  525600    46478.474    133.02983    1601.3696    2435.9247   -2859.5645   -423.63979    661.83399   -5309.8451   -25.968565    2125.6726   -1604.7942          0.5   0.31069959  0.082569763       0.6875   -808.34577    2125.6726   -4475.5308 
  525800    46478.474    134.02621    1259.4125    2454.1695   -2820.0714   -365.90185    487.77944   -5266.9924   -25.968565    2126.4499    -1604.749          0.5   0.31069959  0.082569763       0.6875   -797.47294    2126.4499   -4443.5509 
  526000    46478.474    132.01948    1623.8817     2417.424   -2842.6961   -425.27207    675.46132   -5269.8821   -25.968565    2125.4661   -1604.6023          0.5   0.31069959  0.082569763       0.6875   -797.03053    2125.4661    -4446.883 
  526200    46478.474    129.05255    2069.7211    2363.0962   -2852.2947   -489.19851    913.74302   -5302.8359   -25.968565    2124.2001   -1604.6473          0.5   0.31069959  0.082569763       0.6875   -811.90745    2124.2001   -4464.9598 
  526400    46478.474    134.08727    1654.3182    2455.2876    -2807.375    -352.0874    769.27707   -5281.6128   -25.968565    2126.4168   -1604.9514          0.5   0.31069959  0.082569763       0.6875   -799.08477    2126.4168   -4456.5594 
  526600    46478.474    132.46223    972.40895    2425.5313   -2845.6631   -420.13182     239.0067   -5281.8674   -25.968565    2125.7423     -1604.64          0.5   0.31069959  0.082569763       0.6875   -808.54827    2125.7423   -4447.3505 
  526800    46478.474    133.87628    186.07683    2451.4242   -2898.9509   -447.52668    -321.3962   -5301.8299   -25.968565    2126.0328   -1604.4647          0.5   0.31069959  0.082569763       0.6875   -811.76236    2126.0328    -4464.099 
  527000    46478.474    134.59116     563.3715    2464.5144   -2803.5054   -338.99103    42.885196   -5268.7462   -25.968565    2126.2893    -1604.817          0.5   0.31069959  0.082569763       0.6875   -797.98482    2126.2893   -4444.7928 
  527200    46478.474    134.34421    1257.9163    2459.9924   -2859.9338   -399.94148    452.72558   -5274.5098   -25.968565     2126.465   -1604.6324          0.5   0.31069959  0.082569763       0.6875   -793.20564     2126.465   -4455.3356 
  527400    46478.474    135.86289    1284.8083    2487.8012   -2889.6187   -401.81751    469.07808   -5285.9642   -25.968565    2125.2761   -1604.9917          0.5   0.31069959  0.082569763       0.6875   -804.19452    2125.2761   -4455.8011 
  527600    46478.474    132.26925    835.25067    2421.9976   -2856.7979    -434.8003    131.36673    -5274.274   -25.968565    2126.2681   -1604.7608          0.5   0.31069959  0.082569763       0.6875   -794.49726    2126.2681   -4453.8082 
  527800    46478.474    130.53267    307.44902    2390.1989   -2873.5499     -483.351   -274.94949   -5293.8796   -25.968565    2123.6985   -1605.2094          0.5   0.31069959  0.082569763       0.6875   -807.80942    2123.6985   -4460.1016 
  528000    46478.474    134.25926    1218.3007     2458.437   -2840.9731   -382.53611    443.27788   -5277.9356   -25.968565    2126.4017   -1604.9703          0.5   0.31069959  0.082569763       0.6875   -802.35016    2126.4017   -4449.6168 
  528200    46478.474    134.28817    1067.8676    2458.9663   -2868.7359    -409.7696    314.07467   -5294.8677   -25.968565    2124.1284   -1604.9838          0.5   0.31069959  0.082569763       0.6875   -810.92682    2124.1284   -4457.9723 
  528400    46478.474    130.47219   -207.25984    2389.0915   -2887.5769   -498.48544   -638.97463   -5289.9264   -25.968565    2123.2123   -1604.6763          0.5   0.31069959  0.082569763       0.6875   -800.59024    2123.2123   -4463.3676 
  528600    46478.474    132.45226    25.820821    2425.3487   -2832.7973   -407.44857   -389.94616   -5275.7113   -25.968565    2124.3743   -1605.0094          0.5   0.31069959  0.082569763       0.6875   -795.48614    2124.3743   -4454.2566 
  528800    46478.474    131.84625    1311.8172    2414.2519   -2845.5839   -431.33199    457.87131   -5273.4158   -25.968565    2126.3857   -1604.6543          0.5   0.31069959  0.082569763       0.6875   -802.33559    2126.3857   -4445.1116 
  529000    46478.474    130.96216     1435.459    2398.0633    -2898.612   -500.54877    472.46397   -5302.9924   -25.968565     2125.762   -1604.8772          0.5   0.31069959  0.082569763       0.6875   -794.71197     2125.762   -4482.3118 
  529200    46478.474    132.88842    110.73341    2433.3353   -2853.0116   -419.67635   -344.61672   -5294.7075   -25.968565    2120.9812   -1605.4042          0.5   0.31069959  0.082569763       0.6875   -803.79331    2120.9812   -4464.9456 
  529400    46478.474    136.51115    519.36154    2499.6715   -2882.0782   -382.40671   -30.362232   -5300.2395   -25.968565     2122.714    -1605.185          0.5   0.31069959  0.082569763       0.6875   -804.31548     2122.714   -4469.9555 
  529600    46478.474    132.56509    1664.1154    2427.4147   -2904.9315   -477.51682    650.48858   -5296.1864   -25.968565    2124.1917   -1604.9789          0.5   0.31069959  0.082569763       0.6875   -813.21339    2124.1917   -4457.0044 
  529800    46478.474    135.25241      1299.79    2476.6225   -2872.4037   -395.78118    485.26961   -5291.6181   -25.968565    2123.2342   -1604.7839          0.5   0.31069959  0.082569763       0.6875   -804.68818    2123.2342   -4460.9613 
  530000    46478.474    130.67336    609.50352     2392.775   -2815.6206   -422.84551   -9.6991117   -5276.1685   -25.968565    2123.6174   -1604.9999          0.5   0.31069959  0.082569763       0.6875   -787.18719    2123.6174   -4463.0128 
  530200    46478.474    131.70783    968.62671    2411.7173   -2932.7957   -521.07844    135.49633   -5298.9116   -25.968565    2122.5149   -1605.0718          0.5   0.31069959  0.082569763       0.6875   -801.66505    2122.5149    -4471.278 
  530400    46478.474    133.13947    2039.6728    2437.9323   -2856.0393   -418.10699    964.46661   -5288.1774   -25.968565    2124.4655   -1604.9364          0.5   0.31069959  0.082569763       0.6875   -792.77507    2124.4655   -4469.4338 
  530600    46478.474    134.37134    877.13234    2460.4892   -2843.6496    -383.1604    211.39574   -5293.8934   -25.968565     2123.215   -1605.0498          0.5   0.31069959  0.082569763       0.6875   -811.34315     2123.215   -4456.5817 
  530800    46478.474    131.79542     259.1373    2413.3213   -2902.0967   -488.77542   -313.12157   -5314.5819   -25.968565    2126.1514    -1604.827          0.5   0.31069959  0.082569763       0.6875   -821.08163    2126.1514   -4467.5317 
  531000    46478.474    134.87439    1094.5349    2469.7006    -2868.637    -398.9364    342.98405   -5278.3992   -25.968565    2123.8615    -1604.916          0.5   0.31069959  0.082569763       0.6875   -792.19662    2123.8615    -4460.234 
  531200    46478.474     132.6337    1791.5632     2428.671   -2853.4978   -424.82681    789.56793   -5279.7069   -25.968565     2125.767    -1604.832          0.5   0.31069959  0.082569763       0.6875   -790.83387     2125.767   -4462.9044 
  531400    46478.474    133.35271    1023.0787    2441.8369   -2917.0111   -475.17415    218.31043   -5289.6421   -25.968565    2124.1693   -1605.2161          0.5   0.31069959  0.082569763       0.6875   -798.41328    2124.1693   -4465.2603 
  531600    46478.474    131.36239   -65.246244    2405.3919   -2869.0794   -463.68744   -507.91401   -5303.6358   -25.968565    2123.0693    -1605.076          0.5   0.31069959  0.082569763       0.6875   -801.86208    2123.0693   -4475.8052 
  531800    46478.474    133.23219     743.4603    2439.6301   -2823.9846    -384.3545    119.59328   -5276.6078   -25.968565    2126.8587   -1605.0111          0.5   0.31069959  0.082569763       0.6875   -794.70605    2126.8587   -4455.9332 
  532000    46478.474    133.55848    1474.4509    2445.6049   -2924.5837   -478.97886    520.46418   -5303.2099   -25.968565    2124.2131   -1605.1521          0.5   0.31069959  0.082569763       0.6875   -808.58587    2124.2131   -4468.6555 
  532200    46478.474    133.22667    965.93141    2439.5291   -2898.1446   -458.61554    196.13224   -5310.0071   -25.968565    2121.8347   -1605.1292          0.5   0.31069959  0.082569763       0.6875   -804.41782    2121.8347   -4479.6207 
  532400    46478.474    132.83384    558.06837    2432.3359   -2831.7459   -399.41007   -21.128528   -5268.2684   -25.968565    2125.3434   -1604.8834          0.5   0.31069959  0.082569763       0.6875    -803.6776    2125.3434   -4438.6222 
  532600    46478.474    136.87388    1257.3245    2506.3136   -2851.2494   -344.93576    507.33019   -5295.3196   -25.968565    2123.2138   -1605.1359          0.5   0.31069959  0.082569763       0.6875   -811.89351    2123.2138   -4457.4575 
  532800    46478.474    132.98122    692.50472    2435.0345   -2882.2404   -447.20586    22.202141   -5313.0012   -25.968565    2124.4426   -1604.5915          0.5   0.31069959  0.082569763       0.6875   -807.48403    2124.4426   -4479.5486 
  533000    46478.474    133.52643   -46.864339     2445.018    -2868.641   -423.62294    -455.3895   -5297.8011   -25.968565    2123.9465   -1604.8549          0.5   0.31069959  0.082569763       0.6875   -811.83588    2123.9465   -4459.9967 
  533200    46478.474    136.34303    840.63579    2496.5931   -2845.4686   -348.87546    220.94183   -5296.8437   -25.968565    2124.7969   -1605.0513          0.5   0.31069959  0.082569763       0.6875    -800.8719    2124.7969   -4470.0032 
  533400    46478.474     131.5668    1590.6944     2409.135   -2875.3854   -466.25042    611.98726   -5320.6996   -25.968565    2121.2324   -1604.9045          0.5   0.31069959  0.082569763       0.6875   -816.58786    2121.2324   -4478.1431 
  533600    46478.474    133.83341    1559.3998    2450.6391   -2865.7905   -415.15141    641.87351   -5301.2426   -25.968565    2122.6212   -1604.9551          0.5   0.31069959  0.082569763       0.6875   -804.68341    2122.6212   -4470.5906 
  533800    46478.474    135.54145    401.31723    2481.9152   -2859.6122   -377.69694   -105.66773   -5283.5079   -25.968565    2124.3612   -1605.0195          0.5   0.31069959  0.082569763       0.6875   -795.58993    2124.3612   -4461.9494 
  534000    46478.474    134.13537     524.2536    2456.1684   -2927.4323    -471.2639   -115.90339   -5308.1899   -25.968565    2121.5089   -1604.8417          0.5   0.31069959  0.082569763       0.6875   -805.43761    2121.5089   -4476.7838 
  534200    46478.474    135.22577    1535.9372    2476.1348   -2858.1648   -382.03002    659.09096    -5293.772   -25.968565    2124.8433   -1604.9083          0.5   0.31069959  0.082569763       0.6875   -802.42438    2124.8433   -4465.3791 
  534400    46478.474    133.98843    983.45371    2453.4778   -2845.0438   -391.56605    275.05906   -5297.0441   -25.968565    2123.2249   -1605.1351          0.5   0.31069959  0.082569763       0.6875    -803.5035    2123.2249   -4467.5721 
  534600    46478.474    130.63675    886.93873    2392.1048   -2876.1224   -484.01767    117.18565   -5287.6385   -25.968565    2119.3429   -1604.9301          0.5   0.31069959  0.082569763       0.6875   -793.98242    2119.3429   -4467.6875 
  534800    46478.474    131.72968    1238.3061    2412.1175   -2801.5067   -389.38916    449.98533   -5281.5042   -25.968565    2124.5939   -1604.9171          0.5   0.31069959  0.082569763       0.6875   -795.89297    2124.5939   -4459.6426 
  535000    46478.474     131.7269    1154.2773    2412.0665   -2833.3415   -421.27499    361.14132   -5276.9454   -25.968565    2123.7478   -1604.9116          0.5   0.31069959  0.082569763       0.6875   -799.25342    2123.7478   -4451.7235 
  535200    46478.474    134.17182    691.47364    2456.8357   -2965.3995   -508.56382   -39.854731   -5310.7556   -25.968565     2124.878   -1604.9154          0.5   0.31069959  0.082569763       0.6875   -816.00982     2124.878   -4468.7772 
  535400    46478.474    134.93025   -544.74396    2470.7234   -2877.5901   -406.86667   -776.11639   -5269.7384   -25.968565    2122.5652   -1604.5723          0.5   0.31069959  0.082569763       0.6875   -795.07098    2122.5652   -4448.6989 
  535600    46478.474    135.74887   -743.48234    2485.7133   -2893.7879   -408.07463   -912.03734   -5284.2041   -25.968565    2121.7846   -1604.9432          0.5   0.31069959  0.082569763       0.6875   -804.88494    2121.7846   -4453.3506 
  535800    46478.474    128.82171    15.911817    2358.8693   -2867.3935    -508.5242   -497.73852   -5274.9071   -25.968565    2124.7296   -1604.7824          0.5   0.31069959  0.082569763       0.6875   -803.08785    2124.7296   -4445.8507 
  536000    46478.474    133.37061    578.20901    2442.1647   -2840.8642   -398.69947   -6.7657786   -5298.9585   -25.968565    2121.4121   -1605.1595          0.5   0.31069959  0.082569763       0.6875   -799.50612    2121.4121   -4473.4838 
  536200    46478.474    134.51484     537.5499    2463.1169    -2882.355   -419.23808   -54.864793   -5286.3224   -25.968565    2125.4868   -1605.2051          0.5   0.31069959  0.082569763       0.6875   -813.32786    2125.4868    -4447.026 
  536400    46478.474    134.94792    972.02281     2471.047   -2937.6528   -466.60586    192.27092    -5303.184   -25.968565    2124.4006    -1604.902          0.5   0.31069959  0.082569763       0.6875   -806.83908    2124.4006   -4470.3764 
  536600    46478.474    135.39509    1907.5834    2479.2352   -2838.2349   -358.99963    934.03835   -5296.9199   -25.968565     2125.685   -1604.8303          0.5   0.31069959  0.082569763       0.6875   -802.28993     2125.685   -4468.6614 
  536800    46478.474    131.01739    2232.8828    2399.0746   -2822.4274   -423.35282    1090.1864   -5280.5589   -25.968565    2127.7827   -1604.7105          0.5   0.31069959  0.082569763       0.6875    -802.1722    2127.7827   -4452.4181 
  537000    46478.474    133.32026    1577.0145    2441.2428   -2873.1107   -431.86788    637.09703   -5288.7122   -25.968565    2121.7543   -1604.8487          0.5   0.31069959  0.082569763       0.6875   -794.31497    2121.7543   -4468.4287 
  537200    46478.474    132.89317    1289.4085    2433.4223   -2783.4972    -350.0749    523.93887   -5265.3043   -25.968565    2125.0809   -1604.8507          0.5   0.31069959  0.082569763       0.6875   -794.05583    2125.0809   -4445.2799 
  537400    46478.474    133.93956    1118.6828    2452.5829   -2898.1229   -445.53995    312.74893   -5303.1486   -25.968565      2124.16   -1605.0172          0.5   0.31069959  0.082569763       0.6875   -808.64841      2124.16   -4468.5316 
  537600    46478.474    134.53483    999.06819     2463.483   -2892.0735   -428.59058    248.61867   -5292.2137   -25.968565    2122.1712   -1605.1939          0.5   0.31069959  0.082569763       0.6875   -806.34799    2122.1712   -4459.8971 
  537800    46478.474     133.3093   -280.39486     2441.042   -2842.7557   -401.71375   -591.77684   -5272.7902   -25.968565    2123.7575   -1604.8086          0.5   0.31069959  0.082569763       0.6875   -797.40605    2123.7575   -4449.4156 
  538000    46478.474    133.58179    553.53614    2446.0316    -2851.962    -405.9304   -30.720982   -5277.2009   -25.968565    2124.1863   -1605.1595          0.5   0.31069959  0.082569763       0.6875   -799.02872    2124.1863   -4452.2036 
  538200    46478.474     131.5956    1330.7687    2409.6623   -2846.4632   -436.80084    465.24858   -5279.5382   -25.968565    2125.7777   -1604.8706          0.5   0.31069959  0.082569763       0.6875   -800.57602    2125.7777   -4452.9936 
  538400    46478.474    133.14421    1257.4328    2438.0191   -2842.1063   -404.08719    448.25213   -5276.6866   -25.968565    2126.2934   -1604.8597          0.5   0.31069959  0.082569763       0.6875   -801.45495    2126.2934   -4449.2631 
  538600    46478.474    136.50296     337.5709    2499.5215   -2836.6382   -337.11666   -108.29731   -5292.5904   -25.968565    2125.6973   -1604.7217          0.5   0.31069959  0.082569763       0.6875   -801.73241    2125.6973   -4464.8894 
  538800    46478.474    132.68014    467.94275    2429.5215   -2871.8012   -442.27976   -125.08905   -5285.3457   -25.968565    2123.8405   -1604.8848          0.5   0.31069959  0.082569763       0.6875   -804.06977    2123.8405   -4455.3073 
  539000    46478.474    132.59897    1553.6693    2428.0351   -2856.1121   -428.07704    625.06348   -5265.6256   -25.968565    2123.4902   -1604.9699          0.5   0.31069959  0.082569763       0.6875   -789.79197    2123.4902   -4449.8651 
  539200    46478.474    135.22718    1323.6231    2476.1606   -2807.3519   -331.19132    566.01454   -5267.8558   -25.968565    2125.5238    -1604.511          0.5   0.31069959  0.082569763       0.6875   -791.91736    2125.5238   -4449.9699 
  539400    46478.474    134.43275    1219.4635    2461.6137   -2858.2799   -396.66614    429.93605   -5294.2864   -25.968565    2125.1418   -1604.9474          0.5   0.31069959  0.082569763       0.6875   -813.87263    2125.1418   -4454.4452 
  539600    46478.474    133.37008    2190.1594    2442.1551   -2863.5863   -421.43122    1063.1483   -5275.4419   -25.968565    2123.9388   -1605.1459          0.5   0.31069959  0.082569763       0.6875   -805.09032    2123.9388    -4444.383 
  539800    46478.474    136.68287     2838.774    2502.8159   -2802.5774   -299.76152    1624.4755   -5263.4919   -25.968565    2125.4278   -1604.8179          0.5   0.31069959  0.082569763       0.6875   -785.27195    2125.4278   -4452.2514 
  540000    46478.474    132.26138    1446.1314    2421.8535   -2812.5192   -390.66573    589.58122    -5263.541   -25.968565    2125.1682    -1604.992          0.5   0.31069959  0.082569763       0.6875   -795.39985    2125.1682   -4442.1726 
  540200    46478.474    132.62742    333.53979     2428.556   -2843.0608   -414.50475   -188.41786   -5291.0641   -25.968565     2125.297   -1604.8712          0.5   0.31069959  0.082569763       0.6875   -800.60714     2125.297   -4464.4884 
  540400    46478.474    131.53054   -45.181018     2408.471   -2881.0126   -472.54166    -503.1672   -5293.5688   -25.968565     2123.071   -1604.5872          0.5   0.31069959  0.082569763       0.6875   -806.34495     2123.071   -4461.2553 
  540600    46478.474    134.94255    486.95125    2470.9487   -2841.3852   -370.43653   -40.361078   -5282.6121   -25.968565    2123.1451   -1605.1223          0.5   0.31069959  0.082569763       0.6875    -799.5194    2123.1451   -4457.1242 
  540800    46478.474     132.4245    940.10477    2424.8404   -2836.1651   -411.32469    225.91674   -5283.7493   -25.968565    2124.6267   -1605.0515          0.5   0.31069959  0.082569763       0.6875   -804.68217    2124.6267   -4453.0985 
  541000    46478.474    131.23542    982.19575    2403.0669   -2855.1252   -452.05829    213.71413   -5283.5593   -25.968565    2123.9878   -1605.0053          0.5   0.31069959  0.082569763       0.6875    -804.8138    2123.9878   -4452.7769 
  541200    46478.474     136.3663    1529.8195    2497.0192   -2845.4093   -348.39009    688.58411   -5271.5821   -25.968565    2123.7863   -1605.0218          0.5   0.31069959  0.082569763       0.6875   -795.00401    2123.7863   -4450.6095 
  541400    46478.474    132.13051    1353.7838    2419.4571   -2830.3115   -410.85449    506.79551   -5265.2078   -25.968565     2124.182   -1604.8267          0.5   0.31069959  0.082569763       0.6875   -789.47152     2124.182   -4449.7677 
  541600    46478.474    131.43367     1383.596    2406.6971   -2811.4984   -404.80126    533.05662   -5283.4129   -25.968565    2125.8148   -1604.8698          0.5   0.31069959  0.082569763       0.6875   -799.27341    2125.8148   -4458.1709 
  541800    46478.474    134.64328    1444.7087    2465.4688   -2863.5149   -398.04611    581.23648   -5278.3447   -25.968565    2122.6967   -1604.9239          0.5   0.31069959  0.082569763       0.6875   -795.88778    2122.6967   -4456.4884 
  542000    46478.474    133.20781     1123.224    2439.1836   -2871.9605   -432.77694     328.5902   -5282.9889   -25.968565    2125.3061   -1604.9971          0.5   0.31069959  0.082569763       0.6875   -799.91927    2125.3061   -4457.1011 
  542200    46478.474     133.2886    1479.4123    2440.6631   -2809.6811   -369.01802    633.78812   -5273.3276   -25.968565    2124.0595   -1604.9848          0.5   0.31069959  0.082569763       0.6875   -800.76091    2124.0595   -4446.5982 
  542400    46478.474    134.33416    2391.4891    2459.8085   -2777.4464   -317.63795    1303.4111   -5267.4112   -25.968565    2124.5173   -1604.4726          0.5   0.31069959  0.082569763       0.6875    -789.5037    2124.5173   -4451.9389 
  542600    46478.474    130.37916    1362.8301     2387.388   -2823.7505    -436.3625    487.41944   -5270.4267   -25.968565    2124.3854   -1604.9029          0.5   0.31069959  0.082569763       0.6875   -799.74243    2124.3854   -4444.7157 
  542800    46478.474    133.00989    642.87815    2435.5595   -2798.5046   -362.94516    72.823916   -5261.8868   -25.968565    2125.5397   -1605.0061          0.5   0.31069959  0.082569763       0.6875    -803.3559    2125.5397   -4432.5624 
  543000    46478.474    134.50921    1001.8935    2463.0138   -2793.3039   -330.29016    348.83418   -5269.0924   -25.968565    2124.8528   -1604.6252          0.5   0.31069959  0.082569763       0.6875   -793.64124    2124.8528   -4449.4826 
  543200    46478.474    134.98576    1803.6538      2471.74   -2871.3328   -399.59282    822.99743   -5282.9599   -25.968565    2124.8347   -1604.8361          0.5   0.31069959  0.082569763       0.6875   -803.85922    2124.8347   -4453.1321 
  543400    46478.474    131.95757    1353.3265    2416.2905   -2837.2318   -420.94132     496.3987    -5274.878   -25.968565    2124.0125   -1605.0143          0.5   0.31069959  0.082569763       0.6875   -802.15163    2124.0125   -4446.7578 
  543600    46478.474    134.07577    422.78125    2455.0769   -2790.6702   -335.59333   -49.014915   -5248.9995   -25.968565    2123.7453   -1604.9171          0.5   0.31069959  0.082569763       0.6875   -785.54967    2123.7453   -4437.4813 
  543800    46478.474    134.43072    85.044768    2461.5766   -2857.1609   -395.58438   -337.93756   -5294.3632   -25.968565    2126.1444   -1604.7182          0.5   0.31069959  0.082569763       0.6875   -799.34289    2126.1444   -4469.0517 
  544000    46478.474    132.03964    691.58251    2417.7931   -2820.9129   -403.11978      65.6631    -5267.426   -25.968565    2125.5252   -1604.3923          0.5   0.31069959  0.082569763       0.6875   -797.80841    2125.5252   -4443.6491 
  544200    46478.474    135.42244    1002.7424     2479.736   -2830.7522   -351.01618    328.68358   -5305.1219   -25.968565    2122.3283   -1604.8191          0.5   0.31069959  0.082569763       0.6875   -807.67002    2122.3283   -4471.4833 
  544400    46478.474    133.53201     1071.969    2445.1202   -2889.3482   -444.22803    282.39635   -5293.6853   -25.968565    2123.3544   -1604.6809          0.5   0.31069959  0.082569763       0.6875   -803.55694    2123.3544   -4464.1598 
  544600    46478.474    134.77097    1019.9614     2467.807   -2860.3969   -392.58995    298.78156   -5278.7527   -25.968565    2123.8324   -1604.9916          0.5   0.31069959  0.082569763       0.6875   -808.00114    2123.8324    -4444.783 
  544800    46478.474    136.51158    1491.8673    2499.6793   -2790.5516   -290.87232    720.37632   -5255.7242   -25.968565    2126.8521   -1604.9876          0.5   0.31069959  0.082569763       0.6875    -789.4855    2126.8521   -4440.2701 
  545000    46478.474    134.82789    1454.0243    2468.8492   -2844.8973   -376.04809    609.54903   -5290.8823   -25.968565    2125.6526   -1604.5445          0.5   0.31069959  0.082569763       0.6875   -804.87297    2125.6526   -4460.0407 
  545200    46478.474    132.36589     1947.774    2423.7671   -2834.2871   -410.51992    909.76087   -5269.6679   -25.968565       2126.6   -1604.7805          0.5   0.31069959  0.082569763       0.6875   -799.74564       2126.6   -4443.9537 
  545400    46478.474    132.90692    1678.0516     2433.674    -2789.572   -355.89801     781.5539   -5270.0863   -25.968565    2126.4917   -1604.8282          0.5   0.31069959  0.082569763       0.6875   -795.72892    2126.4917   -4448.3889 
  545600    46478.474    131.74189    881.04073    2412.3411    -2865.637   -453.29588    143.90953   -5286.1956   -25.968565    2123.5695   -1604.9581          0.5   0.31069959  0.082569763       0.6875   -807.15628    2123.5695   -4453.0708 
  545800    46478.474    134.82906    869.41399    2468.8705   -2883.5052   -414.63468    174.68965   -5272.8406   -25.968565    2124.2391   -1605.0566          0.5   0.31069959  0.082569763       0.6875   -808.41002    2124.2391    -4438.462 
  546000    46478.474    133.99134    1424.5999     2453.531   -2800.6526   -347.12165    618.53035    -5284.919   -25.968565    2125.4936   -1604.6705          0.5   0.31069959  0.082569763       0.6875     -809.222    2125.4936   -4449.7284 
  546200    46478.474     133.4882    861.22451    2444.3179   -2874.1487   -429.83084    153.94232   -5293.6901   -25.968565    2125.2805    -1604.937          0.5   0.31069959  0.082569763       0.6875   -812.48818    2125.2805   -4455.2333 
  546400    46478.474       136.02    815.05085    2490.6781   -2837.5764    -346.8983    205.57646   -5270.0165   -25.968565    2125.4402   -1604.6513          0.5   0.31069959  0.082569763       0.6875   -794.70494    2125.4402   -4449.3429 
  546600    46478.474    133.13557    1342.4515    2437.8609   -2807.2268   -369.36584    540.60268   -5246.9126   -25.968565    2123.7516    -1604.675          0.5   0.31069959  0.082569763       0.6875   -795.69298    2123.7516    -4425.251 
  546800    46478.474    131.19272    1235.8904    2402.2851   -2853.8569   -451.57182     386.1652   -5272.2942   -25.968565    2122.5626   -1604.7212          0.5   0.31069959  0.082569763       0.6875   -799.67268    2122.5626    -4446.653 
  547000    46478.474    134.95693    1298.9594    2471.2119   -2843.5137   -372.30174    508.18599   -5269.7532   -25.968565    2123.6316   -1604.6902          0.5   0.31069959  0.082569763       0.6875    -803.4402    2123.6316   -4440.3445 
  547200    46478.474    133.84166    540.97889    2450.7902   -2820.5368   -369.74654   -3.0489408   -5253.9015   -25.968565    2122.4826   -1604.9675          0.5   0.31069959  0.082569763       0.6875   -792.57334    2122.4826   -4435.3596 
  547400    46478.474    131.32851    1052.5757    2404.7716   -2867.8501   -463.07849    250.40032   -5296.8758   -25.968565     2126.155   -1605.0391          0.5   0.31069959  0.082569763       0.6875   -821.16488     2126.155   -4449.7424 
  547600    46478.474    135.99722    2137.3743    2490.2609   -2857.6317   -367.37076    1081.4289   -5291.1441   -25.968565    2125.4556   -1604.7212          0.5   0.31069959  0.082569763       0.6875   -801.49698    2125.4556   -4463.6785 
  547800    46478.474    134.89699    1652.2124    2470.1145   -2876.0868    -405.9723     713.9648   -5277.6021   -25.968565       2124.3   -1604.5773          0.5   0.31069959  0.082569763       0.6875   -802.15971       2124.3   -4449.4739 
  548000    46478.474    131.87497    1432.2899    2414.7779   -2872.0801   -457.30223    513.56242   -5297.7725   -25.968565    2123.3543   -1604.8472          0.5   0.31069959  0.082569763       0.6875   -809.76425    2123.3543   -4462.0397 
  548200    46478.474    136.05539     1227.289     2491.326   -2853.7194    -362.3934    469.51327   -5290.3124   -25.968565    2122.8699   -1605.0839          0.5   0.31069959  0.082569763       0.6875    -811.4152    2122.8699   -4452.9286 
  548400    46478.474    134.53548    1302.9248    2463.4948   -2859.6611   -396.16628    487.00936   -5272.9649   -25.968565    2126.8469   -1604.7179          0.5   0.31069959  0.082569763       0.6875   -793.35959    2126.8469   -4453.6367 
  548600    46478.474    133.33286    343.67241    2441.4735   -2899.1147   -457.64118   -224.68598   -5286.1547   -25.968565    2122.4344   -1604.5909          0.5   0.31069959  0.082569763       0.6875   -809.45684    2122.4344   -4450.7293 
  548800    46478.474    133.58587    86.965873    2446.1064   -2849.3986   -403.29219   -344.34317   -5288.7499   -25.968565    2123.4673   -1605.1405          0.5   0.31069959  0.082569763       0.6875   -816.46314    2123.4673   -4446.3181 
  549000    46478.474    135.91163     489.5537    2488.6937   -2809.5294   -320.83575    11.003755   -5261.8079   -25.968565    2123.3754    -1604.801          0.5   0.31069959  0.082569763       0.6875   -794.90304    2123.3754   -4440.9363 
  549200    46478.474    135.13611    518.85159     2474.493   -2833.6759   -359.18297   -7.4841579   -5280.4449   -25.968565    2123.9617    -1604.658          0.5   0.31069959  0.082569763       0.6875   -802.09481    2123.9617   -4452.3815 
  549400    46478.474    132.05398    1430.5533    2418.0558   -2837.9811    -419.9253    549.76218   -5271.8654   -25.968565     2124.871   -1605.0355          0.5   0.31069959  0.082569763       0.6875   -799.73359     2124.871   -4446.1633 
  549600    46478.474    135.58463    2042.9994    2482.7059   -2862.0455    -379.3396    1005.4889   -5288.4169   -25.968565    2122.6527   -1604.9198          0.5   0.31069959  0.082569763       0.6875   -803.37922    2122.6527   -4459.0691 
  549800    46478.474    132.93146    1708.3769    2434.1235   -2795.2536   -361.13013    796.87753   -5270.9567   -25.968565    2127.1188   -1604.7168          0.5   0.31069959  0.082569763       0.6875    -802.4034    2127.1188   -4442.5847 
  550000    46478.474    131.62911    1477.1095    2410.2759   -2873.6404   -463.36444    537.88072   -5275.1075   -25.968565     2123.971   -1604.9849          0.5   0.31069959  0.082569763       0.6875   -797.33993     2123.971    -4451.799 
  550200    46478.474    134.50703    1691.1674    2462.9739   -2865.0288   -402.05486    744.28751   -5278.3211   -25.968565    2124.5987   -1604.6133          0.5   0.31069959  0.082569763       0.6875   -805.33634    2124.5987   -4447.0162 
  550400    46478.474     133.7471    2055.8309    2449.0587   -2830.2585   -381.19984    1012.3264   -5282.8546   -25.968565    2127.9657   -1604.8806          0.5   0.31069959  0.082569763       0.6875   -812.27904    2127.9657    -4444.607 
  550600    46478.474     135.6887    1521.0045    2484.6115   -2901.1858    -416.5743     614.4247   -5289.3938   -25.968565    2124.3918   -1604.6384          0.5   0.31069959  0.082569763       0.6875   -809.93674    2124.3918   -4453.4885 
  550800    46478.474    131.68015    -43.09289    2411.2104   -2875.6776   -464.46717   -493.67729   -5284.9794   -25.968565    2123.6955    -1605.207          0.5   0.31069959  0.082569763       0.6875   -804.97279    2123.6955    -4454.038 
  551000    46478.474    130.96804   -22.369757    2398.1709   -2764.3602   -366.18932   -381.35246   -5247.2938   -25.968565    2124.9695    -1604.909          0.5   0.31069959  0.082569763       0.6875   -794.56688    2124.9695   -4426.7584 
  551200    46478.474    130.39208    1256.6012    2387.6246   -2816.2457   -428.62107    423.15459   -5256.1867   -25.968565    2125.4186   -1604.7472          0.5   0.31069959  0.082569763       0.6875   -795.93412    2125.4186    -4434.284 
  551400    46478.474    134.70913    1785.8691    2466.6746   -2922.5661   -455.89154    754.64353   -5288.9836   -25.968565    2124.2921   -1605.0715          0.5   0.31069959  0.082569763       0.6875   -800.64853    2124.2921   -4462.3665 
  551600    46478.474    135.11888    1174.4441    2474.1775   -2842.7474   -368.56994    427.51623   -5272.0991   -25.968565     2122.904   -1604.9203          0.5   0.31069959  0.082569763       0.6875   -799.46246     2122.904   -4446.6681 
  551800    46478.474    135.01402    1793.0236    2472.2573   -2829.6459   -357.38856    857.99611   -5250.7616   -25.968565    2128.7413   -1604.6069          0.5   0.31069959  0.082569763       0.6875   -799.37945    2128.7413   -4425.4136 
  552000    46478.474    131.12957      1618.25    2401.1288   -2838.5817   -437.45297    659.46304   -5269.5681   -25.968565    2124.1058    -1604.962          0.5   0.31069959  0.082569763       0.6875   -796.20666    2124.1058   -4447.3929 
  552200    46478.474    134.27864    2145.8509    2458.7918   -2859.0457   -400.25391    1054.2915   -5255.3179   -25.968565    2125.6734   -1604.9108          0.5   0.31069959  0.082569763       0.6875   -804.54072    2125.6734   -4424.8087 
  552400    46478.474    133.27901    1242.0349    2440.4875   -2810.2519   -369.76441    472.13757   -5257.2613   -25.968565    2126.4768   -1604.5339          0.5   0.31069959  0.082569763       0.6875   -795.33373    2126.4768    -4435.959 
  552600    46478.474    130.17503    972.25274    2383.6501   -2872.6674   -489.01725    170.01538   -5277.1573   -25.968565    2124.2361    -1605.012          0.5   0.31069959  0.082569763       0.6875   -806.32736    2124.2361   -4444.8613 
  552800    46478.474    133.24774    1525.7587    2439.9149   -2880.8646   -440.94974    593.27185   -5277.8783   -25.968565    2123.3212   -1605.1385          0.5   0.31069959  0.082569763       0.6875   -799.16539    2123.3212   -4452.7443 
  553000    46478.474    133.69048    1240.9982    2448.0218   -2822.8629   -374.84108    466.35823   -5262.4239   -25.968565    2121.8226   -1604.7835          0.5   0.31069959  0.082569763       0.6875   -797.82243    2121.8226   -4438.6329 
  553200    46478.474    138.89196     476.2189    2543.2667   -2812.2764   -269.00964     53.79099   -5262.5825   -25.968565     2126.014   -1604.7953          0.5   0.31069959  0.082569763       0.6875   -802.98571     2126.014   -4433.6282 
  553400    46478.474    133.03887    80.420106    2436.0902   -2806.6512   -370.56101   -316.04898   -5268.4079   -25.968565    2124.7833   -1604.8653          0.5   0.31069959  0.082569763       0.6875   -802.12597    2124.7833   -4440.3134 
  553600    46478.474    133.69053     173.1649    2448.0228   -2892.5802   -444.55743   -327.17918   -5294.5803   -25.968565    2123.1918   -1604.6777          0.5   0.31069959  0.082569763       0.6875   -803.93217    2123.1918   -4464.6795 
  553800    46478.474    133.67797    483.18176    2447.7929   -2835.1306   -387.33772   -59.817377   -5261.7225   -25.968565    2125.6253    -1605.076          0.5   0.31069959  0.082569763       0.6875   -803.08084    2125.6253   -4432.6731 
  554000    46478.474    136.79924    743.30214    2504.9468   -2906.5115   -401.56462    102.27594   -5274.4498   -25.968565    2125.7237   -1604.6973          0.5   0.31069959  0.082569763       0.6875   -808.12437    2125.7237   -4440.3569 
  554200    46478.474    132.37155    1150.3673    2423.8708   -2850.3578   -426.48694    353.27899    -5270.266   -25.968565    2124.5766   -1604.5764          0.5   0.31069959  0.082569763       0.6875   -793.37333    2124.5766   -4450.9241 
  554400    46478.474    134.01282    395.34741    2453.9243   -2794.8136   -340.88928   -72.906656   -5276.4656   -25.968565    2126.4236   -1604.9141          0.5   0.31069959  0.082569763       0.6875   -806.37273    2126.4236   -4444.1243 
  554600    46478.474    134.51953   -217.01469    2463.2027   -2851.0478   -387.84504   -534.94647   -5265.2365   -25.968565    2125.4446   -1605.1352          0.5   0.31069959  0.082569763       0.6875   -802.65561    2125.4446   -4436.6123 
  554800    46478.474    130.78426   -535.14337    2394.8058   -2834.9349   -440.12912   -802.87117   -5254.8083   -25.968565    2125.2964   -1604.8533          0.5   0.31069959  0.082569763       0.6875   -791.35286    2125.2964   -4437.4869 
  555000    46478.474    135.47216   -738.40613    2480.6464    -2830.898   -350.25163   -850.77348   -5261.7926   -25.968565    2124.6351   -1605.1132          0.5   0.31069959  0.082569763       0.6875   -811.51243    2124.6351   -4424.3116 
  555200    46478.474    133.23021    581.22841    2439.5939   -2857.8961   -418.30224   -24.321869   -5277.3171   -25.968565    2122.9988   -1604.5375          0.5   0.31069959  0.082569763       0.6875   -796.31316    2122.9988   -4455.0354 
  555400    46478.474     133.3986    2038.3301    2442.6772   -2877.5548   -434.87755    946.78587   -5281.5453   -25.968565    2126.7991   -1604.6665          0.5   0.31069959  0.082569763       0.6875   -799.88814    2126.7991   -4455.6885 
  555600    46478.474    135.73088    1275.4799    2485.3839   -2837.2333    -351.8494    512.72298   -5252.3451   -25.968565    2126.3039   -1604.9026          0.5   0.31069959  0.082569763       0.6875   -790.66297    2126.3039   -4435.7136 
  555800    46478.474    130.59563    989.22136    2391.3518   -2854.4601   -463.10829    207.42637   -5271.2233   -25.968565    2125.1362   -1604.8988          0.5   0.31069959  0.082569763       0.6875   -786.44349    2125.1362   -4458.8112 
  556000    46478.474    132.14828    1046.9992    2419.7825   -2831.2584   -411.47591    298.22292   -5283.5151   -25.968565    2124.7271   -1604.9432          0.5   0.31069959  0.082569763       0.6875   -807.76265    2124.7271   -4449.7838 
  556200    46478.474    133.91284    1313.8329    2452.0936    -2861.464   -409.37034    481.19929    -5263.417   -25.968565    2126.0426   -1604.8247          0.5   0.31069959  0.082569763       0.6875    -793.3992    2126.0426   -4444.0492 
  556400    46478.474    132.06225     832.7573    2418.2072   -2910.7678   -492.56053    71.916397   -5273.1532   -25.968565    2123.7808    -1605.195          0.5   0.31069959  0.082569763       0.6875    -803.4941    2123.7808   -4443.6905 
  556600    46478.474     130.1522    1195.8917    2383.2321   -2807.6042   -424.37209    386.25219   -5270.8803   -25.968565    2125.3652    -1604.706          0.5   0.31069959  0.082569763       0.6875   -794.45636    2125.3652   -4450.4553 
  556800    46478.474    134.49173     1942.722    2462.6936   -2852.9887   -390.29512    926.56127   -5265.7893   -25.968565    2125.4484    -1604.763          0.5   0.31069959  0.082569763       0.6875   -794.25035    2125.4484   -4445.5704 
  557000    46478.474     133.4233    1459.1415    2443.1295   -2847.4427   -404.31316    584.75255   -5276.5463   -25.968565    2126.3291   -1604.5843          0.5   0.31069959  0.082569763       0.6875   -807.11794    2126.3291   -4443.4598 
  557200    46478.474    136.92342    636.31762    2507.2207   -2855.0961   -347.87541    83.446679   -5235.5051   -25.968565    2126.2258   -1604.6008          0.5   0.31069959  0.082569763       0.6875   -786.56186    2126.2258   -4422.9746 
  557400    46478.474    134.19133    529.74426     2457.193   -2900.1793   -442.98631   -83.904004   -5277.7065   -25.968565    2126.2275   -1604.8351          0.5   0.31069959  0.082569763       0.6875   -801.99496    2126.2275   -4449.7429 
  557600    46478.474    134.05676    1623.8985    2454.7288   -2899.6014   -444.87258    655.87218   -5269.7384   -25.968565    2124.1982    -1604.835          0.5   0.31069959  0.082569763       0.6875   -784.19746    2124.1982   -4459.5724 
  557800    46478.474    132.34835    1937.9418    2423.4461   -2842.6654   -419.21927    894.39687   -5262.7276   -25.968565    2126.8999   -1604.9397          0.5   0.31069959  0.082569763       0.6875   -793.62454    2126.8999   -4443.1345 
  558000    46478.474    134.22984    229.63527    2457.8983   -2796.2959   -338.39769   -182.74152   -5255.2056   -25.968565      2126.89   -1604.8061          0.5   0.31069959  0.082569763       0.6875   -794.44447      2126.89   -4434.7926 
  558200    46478.474    133.25309   -787.00116    2440.0129   -2828.0456   -388.03275   -921.49429   -5265.2993   -25.968565    2127.3231   -1604.9428          0.5   0.31069959  0.082569763       0.6875   -796.70345    2127.3231   -4442.6273 
  558400    46478.474    132.34749     480.0445    2423.4303   -2853.1467   -429.71637   -104.32259   -5273.1839   -25.968565    2126.2804   -1604.8564          0.5   0.31069959  0.082569763       0.6875   -791.62131    2126.2804    -4455.594 
  558600    46478.474    135.49619    2063.2681    2481.0865   -2843.1033   -362.01687    1036.5506   -5253.5857   -25.968565    2128.1733   -1605.0353          0.5   0.31069959  0.082569763       0.6875   -800.74694    2128.1733   -4426.8702 
  558800    46478.474    134.90729    1336.4278    2470.3031   -2834.9223   -364.61912    541.26622   -5254.6663   -25.968565    2125.8902   -1604.8676          0.5   0.31069959  0.082569763       0.6875   -789.42342    2125.8902   -4439.2744 
  559000    46478.474    131.84777   -21.813727    2414.2799   -2827.6743   -413.39437   -428.18061   -5264.1865   -25.968565    2123.7761   -1604.6137          0.5   0.31069959  0.082569763       0.6875   -788.82479    2123.7761   -4449.3932 
[...]
 2485800    46478.474    129.86247    1115.9588    2377.9267   -2799.5696   -421.64284    334.79962   -5253.6331   -25.968565    2122.9489    -1604.976          0.5   0.31069959  0.082569763       0.6875   -793.95699    2122.9489   -4433.7076 
 2486000    46478.474    133.49248    851.20697    2444.3963   -2840.0913   -395.69496    181.28791   -5270.8583   -25.968565    2125.7351   -1605.1172          0.5   0.31069959  0.082569763       0.6875   -794.51019    2125.7351   -4450.3795 
 2486200    46478.474    130.55846   -22.868023    2390.6712   -2834.5354    -443.8642   -459.36508   -5266.4388   -25.968565    2124.4787   -1605.0937          0.5   0.31069959  0.082569763       0.6875   -799.29351    2124.4787   -4441.1767 
 2486400    46478.474    133.92673    1437.7886     2452.348   -2801.6331   -349.28517    625.30669   -5244.9671   -25.968565    2125.2448    -1605.162          0.5   0.31069959  0.082569763       0.6875   -785.62666    2125.2448   -4433.3718 
 2486600    46478.474    132.51499    2471.9059    2426.4975   -2876.0134   -449.51594    1226.0429   -5282.5741   -25.968565    2125.0656   -1604.5751          0.5   0.31069959  0.082569763       0.6875   -802.15114    2125.0656   -4454.4544 
 2486800    46478.474    133.67586    2099.9867    2447.7542   -2895.9106   -448.15636    975.30045   -5302.1108   -25.968565    2123.4031   -1605.1934          0.5   0.31069959  0.082569763       0.6875   -807.32435    2123.4031   -4468.8179 
 2487000    46478.474    133.70048    1415.3743     2448.205   -2828.6675   -380.46255      578.936   -5282.1988   -25.968565     2124.225   -1604.9907          0.5   0.31069959  0.082569763       0.6875   -802.10885     2124.225   -4454.1214 
 2487200    46478.474    130.88404    1456.2075    2396.6328   -2848.4179   -451.78507    535.29186   -5256.1591   -25.968565    2126.1034   -1604.6823          0.5   0.31069959  0.082569763       0.6875   -796.78252    2126.1034    -4433.408 
 2487400    46478.474    131.14118    1982.6678    2401.3414   -2859.0928    -457.7514    886.18184   -5270.0434   -25.968565    2124.8796   -1604.9054          0.5   0.31069959  0.082569763       0.6875   -794.19319    2124.8796   -4449.8817 
 2487600    46478.474     134.2836    1023.3521    2458.8826   -2849.6575    -390.7749    302.89501   -5262.7982   -25.968565    2125.1352   -1604.9443          0.5   0.31069959  0.082569763       0.6875    -796.0178    2125.1352   -4440.8118 
 2487800    46478.474    133.19514    532.82805    2438.9516    -2852.907   -413.95539   -52.782768   -5260.0509   -25.968565     2123.171   -1604.9785          0.5   0.31069959  0.082569763       0.6875   -804.92478     2123.171   -4429.1575 
 2488000    46478.474    131.59995    1584.4325    2409.7419   -2897.1109   -487.36903    586.62405   -5286.0923   -25.968565    2124.1329   -1604.8161          0.5   0.31069959  0.082569763       0.6875   -805.91369    2124.1329     -4454.21 
 2488200    46478.474    135.49894    1985.2799    2481.1368    -2859.264   -378.12723     967.5766    -5272.142   -25.968565    2126.3879    -1604.626          0.5   0.31069959  0.082569763       0.6875   -794.49924    2126.3879   -4451.6742 
 2488400    46478.474    133.03427    962.91685     2436.006   -2823.7759   -387.76996    264.93442   -5260.8904   -25.968565    2124.5894   -1605.0254          0.5   0.31069959  0.082569763       0.6875   -790.23604    2124.5894   -4444.6858 
 2488600    46478.474    130.95888    824.56308    2398.0033   -2884.2583   -486.25503    72.667524    -5281.809   -25.968565    2124.6679   -1604.7216          0.5   0.31069959  0.082569763       0.6875   -802.57558    2124.6679   -4453.2649 
 2488800    46478.474    132.85474    1207.1612    2432.7187   -2855.2426   -422.52393    395.73923   -5267.6904   -25.968565     2126.805   -1604.7228          0.5   0.31069959  0.082569763       0.6875   -791.52325     2126.805   -4450.1985 
 2489000    46478.474    134.62117    1428.2548     2465.064   -2870.9818   -405.91783    562.21162   -5275.9462   -25.968565    2123.6061    -1604.851          0.5   0.31069959  0.082569763       0.6875   -795.76583    2123.6061   -4454.2118 
 2489200    46478.474    131.32861    894.69221    2404.7735    -2914.869   -510.09551    96.363434   -5276.2198   -25.968565    2124.0136   -1604.7742          0.5   0.31069959  0.082569763       0.6875   -801.74217    2124.0136   -4448.5091 
 2489400    46478.474    133.99861    1769.9615    2453.6641   -2849.5545   -395.89043    803.86181   -5276.0545   -25.968565    2125.3706    -1605.159          0.5   0.31069959  0.082569763       0.6875   -799.39938    2125.3706   -4450.6865 
 2489600    46478.474    134.21465     1617.605    2457.6201   -2839.8052   -382.18508    714.29371    -5259.804   -25.968565    2124.4076   -1604.8497          0.5   0.31069959  0.082569763       0.6875   -791.72445    2124.4076   -4442.1109 
 2489800    46478.474    132.76162    310.13393    2431.0134   -2887.4248   -456.41142   -246.18997   -5273.8072   -25.968565    2124.0961   -1604.6485          0.5   0.31069959  0.082569763       0.6875    -801.0801    2124.0961   -4446.7585 
 2490000    46478.474    132.89496     1092.502    2433.4551    -2853.287    -419.8319    320.71063   -5289.8912   -25.968565    2123.3769   -1604.6616          0.5   0.31069959  0.082569763       0.6875   -796.36616    2123.3769   -4467.5565 
 2490200    46478.474     134.4583    2183.2125    2462.0816   -2827.5212    -365.4396     1114.431   -5256.2439   -25.968565     2127.908   -1604.7748          0.5   0.31069959  0.082569763       0.6875   -792.67751     2127.908   -4437.5978 
 2490400    46478.474    130.60722    1658.1448     2391.564   -2861.2728   -469.70878    654.24953   -5276.5168   -25.968565    2125.6186    -1605.063          0.5   0.31069959  0.082569763       0.6875    -799.8312    2125.6186   -4450.7171 
 2490600    46478.474    133.23306    303.50777     2439.646   -2865.6487   -426.00264   -220.27267   -5282.9551   -25.968565     2122.226   -1605.0676          0.5   0.31069959  0.082569763       0.6875   -801.06487     2122.226   -4455.9217 
 2490800    46478.474    135.01995    414.15832     2472.366   -2822.1574   -349.79138    -69.05795   -5275.1559   -25.968565    2124.3046   -1604.7329          0.5   0.31069959  0.082569763       0.6875   -800.47534    2124.3046    -4448.712 
 2491000    46478.474    134.15741    1681.8084     2456.572   -2890.7182   -434.14622    705.85224   -5279.5472   -25.968565    2126.5631   -1604.8134          0.5   0.31069959  0.082569763       0.6875   -799.45771    2126.5631   -4454.1209 
 2491200    46478.474    132.87514    1475.6324    2433.0922   -2843.1116    -410.0194    590.22453   -5273.1164   -25.968565    2124.0166   -1604.4611          0.5   0.31069959  0.082569763       0.6875   -796.96562    2124.0166   -4450.1822 
 2491400    46478.474    132.82051     368.2937    2432.0919   -2804.6935   -372.60161   -122.95709   -5261.5403   -25.968565    2126.2018    -1604.913          0.5   0.31069959  0.082569763       0.6875   -791.68751    2126.2018   -4443.8842 
 2491600    46478.474    133.29851    511.13989    2440.8446   -2904.9267   -464.08212   -117.61061   -5282.9762   -25.968565    2124.4544   -1605.0313          0.5   0.31069959  0.082569763       0.6875   -806.89383    2124.4544   -4450.1138 
 2491800    46478.474    134.69833    1659.2456    2466.4768   -2871.1551   -404.67828    720.02618   -5275.5418   -25.968565    2124.4967   -1605.0608          0.5   0.31069959  0.082569763       0.6875   -802.47052    2124.4967   -4447.1028 
 2492000    46478.474    132.83845    2075.7888    2432.4203   -2824.8719   -392.45155     1014.603   -5244.2957   -25.968565    2126.8425   -1605.1557          0.5   0.31069959  0.082569763       0.6875   -789.53041    2126.8425   -4428.7967 
 2492200    46478.474    134.34453    1001.5835    2459.9983   -2877.3165   -417.31813     261.5961   -5254.8709   -25.968565    2126.2077   -1604.8532          0.5   0.31069959  0.082569763       0.6875   -782.33383    2126.2077   -4446.5686 
 2492400    46478.474    131.39657    926.24043    2406.0179   -2846.9672   -440.94933    186.89428   -5272.2524   -25.968565    2124.1747   -1604.9666          0.5   0.31069959  0.082569763       0.6875    -802.4347    2124.1747   -4443.8491 
 2492600    46478.474    135.44293    1914.5079    2480.1113   -2819.5495    -339.4382    958.29348     -5274.54   -25.968565    2125.4475   -1604.8089          0.5   0.31069959  0.082569763       0.6875   -803.47419    2125.4475   -4445.0973 
 2492800    46478.474    131.96764    754.32798    2416.4748   -2838.4129   -421.93805    89.376272   -5261.9149   -25.968565    2127.0257    -1604.409          0.5   0.31069959  0.082569763       0.6875    -791.4748    2127.0257   -4444.4715 
 2493000    46478.474    131.94056    99.773087     2415.979   -2837.3644   -421.38539   -353.75512   -5250.4855   -25.968565    2124.2443   -1604.9093          0.5   0.31069959  0.082569763       0.6875   -786.13054    2124.2443   -4438.3864 
 2493200    46478.474    134.66735    482.67509    2465.9095   -2820.2209   -354.31139   -27.134491   -5242.5856   -25.968565    2126.5832   -1604.4985          0.5   0.31069959  0.082569763       0.6875   -782.75477    2126.5832   -4433.8622 
 2493400    46478.474    136.31656    1438.1733    2496.1084   -2830.5443   -334.43591    640.41674   -5244.7953   -25.968565    2126.4248   -1604.9632          0.5   0.31069959  0.082569763       0.6875   -780.96031    2126.4248   -4437.8664 
 2493600    46478.474    133.28827     1036.771     2440.657   -2865.1817   -424.52467    278.24107   -5274.7286   -25.968565    2125.6936   -1605.0813          0.5   0.31069959  0.082569763       0.6875   -810.45754    2125.6936   -4438.3024 
 2493800    46478.474    131.94662    1189.3571    2416.0899    -2837.936   -421.84613    384.34875   -5268.8628   -25.968565    2125.5348   -1604.9278          0.5   0.31069959  0.082569763       0.6875   -804.69003    2125.5348   -4438.2042 
 2494000    46478.474    134.64918     555.2064    2465.5767   -2803.9337   -338.35702    37.984571   -5273.5252   -25.968565    2124.5251   -1605.0383          0.5   0.31069959  0.082569763       0.6875   -796.41797    2124.5251   -4451.1387 
 2494200    46478.474    131.99453    541.09088    2416.9672   -2855.8356    -438.8684   -72.094893   -5261.1261   -25.968565    2125.8189   -1604.8836          0.5   0.31069959  0.082569763       0.6875   -796.10495    2125.8189   -4439.0526 
 2494400    46478.474    134.26526    1017.9913    2458.5467   -2866.0881   -407.54137    282.49477   -5265.2287   -25.968565    2125.1414   -1605.0997          0.5   0.31069959  0.082569763       0.6875   -801.04675    2125.1414   -4438.2134 
 2494600    46478.474    132.85281    1405.7191    2432.6832   -2844.7434    -412.0601    540.79376   -5237.3262   -25.968565    2125.4395   -1604.9558          0.5   0.31069959  0.082569763       0.6875   -785.84777    2125.4395   -4425.5098 
 2494800    46478.474    133.78493    1302.6371    2449.7514   -2836.9189   -387.16754     495.8131   -5266.1225   -25.968565    2125.5509   -1604.8982          0.5   0.31069959  0.082569763       0.6875   -795.25753    2125.5509   -4444.8964 
 2495000    46478.474    133.78381    793.62175    2449.7309   -2845.8262   -396.09528    141.85397   -5256.5483   -25.968565    2125.9159   -1605.0443          0.5   0.31069959  0.082569763       0.6875   -790.59274    2125.9159    -4439.987 
 2495200    46478.474    129.69679    1047.6336    2374.8931   -2858.3499   -483.45679     226.6721   -5277.3097   -25.968565    2126.1918    -1604.759          0.5   0.31069959  0.082569763       0.6875   -799.94784    2126.1918   -4451.3933 
 2495400    46478.474      135.288     1197.308    2477.2743   -2850.6689   -373.39466    438.18961   -5251.0162   -25.968565    2125.6248   -1604.6403          0.5   0.31069959  0.082569763       0.6875   -781.21091    2125.6248   -4443.8367 
 2495600    46478.474    133.58775    193.69362    2446.1408   -2857.6112   -411.47044   -280.17699   -5244.3028   -25.968565    2125.1703   -1605.0927          0.5   0.31069959  0.082569763       0.6875   -796.59622    2125.1703   -4421.7381 
 2495800    46478.474    133.63699    1084.0915    2447.0425   -2824.6383   -377.59588    357.24566   -5262.2547   -25.968565    2126.4337   -1604.6405          0.5   0.31069959  0.082569763       0.6875   -789.49951    2126.4337   -4446.7866 
 2496000    46478.474    135.36031    1528.3318    2478.5984   -2828.5503   -349.95189    686.01383   -5245.9977   -25.968565    2125.4076   -1604.6409          0.5   0.31069959  0.082569763       0.6875   -791.32979    2125.4076   -4428.6994 
 2496200    46478.474    134.16585    1952.0859    2456.7264   -2852.4775   -395.75107    927.45254   -5274.0393   -25.968565    2124.8617   -1604.9797          0.5   0.31069959  0.082569763       0.6875    -797.3055    2124.8617   -4450.7652 
 2496400    46478.474    130.53884     809.4537    2390.3119   -2802.5986   -412.28665    136.39414   -5262.9607   -25.968565    2125.0228   -1604.5191          0.5   0.31069959  0.082569763       0.6875   -799.68176    2125.0228   -4437.3103 
 2496600    46478.474    134.52955    869.77646    2463.3861   -2769.8845   -306.49833    283.07169   -5249.6986   -25.968565    2125.7835   -1604.4005          0.5   0.31069959  0.082569763       0.6875   -788.30862    2125.7835   -4435.4214 
 2496800    46478.474     133.3856    758.55807    2442.4393   -2852.3888   -409.94954    104.23211   -5270.9591   -25.968565    2125.3874   -1604.5406          0.5   0.31069959  0.082569763       0.6875    -808.6733    2125.3874   -4436.3172 
 2497000    46478.474    134.66438    1037.5744     2465.855   -2843.7639   -377.90887    325.40145      -5282.3   -25.968565    2127.0962   -1604.4988          0.5   0.31069959  0.082569763       0.6875    -810.1174    2127.0962    -4446.214 
 2497200    46478.474    132.39827    1347.1786    2424.3601   -2819.9948    -395.6347    517.53803   -5251.0843   -25.968565    2127.8608   -1604.6933          0.5   0.31069959  0.082569763       0.6875   -799.36889    2127.8608   -4425.7468 
 2497400    46478.474    133.07124    645.18271    2436.6829   -2890.3621   -453.67918   -16.347977   -5293.8866   -25.968565    2123.5863   -1604.5876          0.5   0.31069959  0.082569763       0.6875   -812.16039    2123.5863   -4455.7576 
 2497600    46478.474    133.57622    1058.4853    2445.9298   -2785.2368   -339.30705    378.17756   -5251.4402   -25.968565    2125.6102   -1604.7973          0.5   0.31069959  0.082569763       0.6875   -807.43414    2125.6102   -4418.0375 
 2497800    46478.474    134.36355    1153.1954    2460.3465    -2838.072   -377.72551    403.95744   -5286.7443   -25.968565    2125.1753   -1604.4993          0.5   0.31069959  0.082569763       0.6875   -801.45394    2125.1753   -4459.3218 
 2498000    46478.474    132.49874    621.88378    2426.1998   -2830.7171   -404.51733    17.020906   -5260.2547   -25.968565    2124.8724   -1604.5359          0.5   0.31069959  0.082569763       0.6875   -801.14697    2124.8724   -4433.1392 
 2498200    46478.474    133.84719    1039.5757    2450.8915   -2854.4009   -403.50943    301.15744   -5268.7254   -25.968565    2126.1013   -1604.9118          0.5   0.31069959  0.082569763       0.6875   -797.13313    2126.1013   -4445.6237 
 2498400    46478.474    131.70775    979.40721    2411.7159   -2919.6219   -507.90599    155.97624   -5295.6747   -25.968565    2124.7522   -1604.6638          0.5   0.31069959  0.082569763       0.6875   -807.05189    2124.7522   -4462.6543 
 2498600    46478.474    132.49668    1145.1721    2426.1621   -2909.7896   -483.62748    292.61695   -5291.0193   -25.968565    2123.6352   -1605.0462          0.5   0.31069959  0.082569763       0.6875   -793.25803    2123.6352   -4471.7927 
 2498800    46478.474    134.50559    628.06462    2462.9475   -2837.4858   -374.53831    51.189559   -5266.5167   -25.968565    2123.5377   -1604.5289          0.5   0.31069959  0.082569763       0.6875   -798.90941    2123.5377   -4441.6387 
 2499000    46478.474    132.51641     115.2511    2426.5234   -2808.8461   -382.32266   -304.20076   -5279.1154   -25.968565    2122.7871   -1604.7476          0.5   0.31069959  0.082569763       0.6875   -807.62545    2122.7871   -4445.5213 
 2499200    46478.474    132.63132   -284.82498    2428.6275   -2870.2545   -441.62697   -634.69298   -5287.5815   -25.968565    2123.6931   -1604.9692          0.5   0.31069959  0.082569763       0.6875   -805.75482    2123.6931   -4455.8581 
 2499400    46478.474    133.87613   -425.01994    2451.4214    -2842.688   -391.26657   -679.36245   -5280.5339   -25.968565    2124.1698   -1604.7462          0.5   0.31069959  0.082569763       0.6875   -805.37776    2124.1698   -4449.1876 
 2499600    46478.474    134.28023    269.87361    2458.8209   -2847.5016   -388.68066    -205.7493   -5268.0431   -25.968565    2125.3149   -1604.6586          0.5   0.31069959  0.082569763       0.6875   -804.15399    2125.3149   -4437.9206 
 2499800    46478.474    132.36398    862.91169    2423.7322   -2831.9352   -408.20307    176.71373    -5279.541   -25.968565    2127.1654   -1604.3876          0.5   0.31069959  0.082569763       0.6875   -800.62079    2127.1654   -4452.9517 
 2500000    46478.474     133.5117    1184.9759    2444.7483   -2862.2143   -417.46603    385.75909   -5290.2939   -25.968565    2127.5166   -1604.8259          0.5   0.31069959  0.082569763       0.6875    -809.8166    2127.5166   -4454.5088 
Loop time of 14360.5 on 24 procs for 2000000 steps with 6144 atoms

Performance: 12.033 ns/day, 1.995 hours/ns, 139.271 timesteps/s
95.5% CPU use with 24 MPI tasks x no OpenMP threads

MPI task timing breakdown:
Section |  min time  |  avg time  |  max time  |%varavg| %total
---------------------------------------------------------------
Pair    | 7401.5     | 7886.7     | 8243.9     | 257.1 | 54.92
Bond    | 77.577     | 84.8       | 91.676     |  44.7 |  0.59
Kspace  | 2916.9     | 3280.8     | 3755.3     | 389.7 | 22.85
Neigh   | 436.87     | 437.48     | 437.94     |   1.3 |  3.05
Comm    | 824.18     | 839.52     | 857.28     |  31.1 |  5.85
Output  | 1.5106     | 1.5988     | 3.2968     |  28.0 |  0.01
Modify  | 1693.6     | 1706.8     | 1726.5     |  18.5 | 11.89
Other   |            | 122.8      |            |       |  0.86

Nlocal:        256.000 ave         270 max         242 min
Histogram: 2 3 1 2 1 5 4 2 2 2
Nghost:        8598.29 ave        8654 max        8536 min
Histogram: 4 4 0 0 1 2 4 3 2 4
Neighs:         0.00000 ave           0 max           0 min
Histogram: 24 0 0 0 0 0 0 0 0 0

Total # of neighbors = 0
Ave neighs/atom = 0.0000000
Ave special neighs/atom = 4.0000000
Neighbor list builds = 48632
Dangerous builds = 0

write_data      data.${NAME}
write_data      data.ar
System init for write_data ...
PPPM initialization ...
  using 12-bit tables for long-range coulomb (../kspace.cpp:340)
  G vector (1/distance) = 0.26230706
  grid = 32 32 32
  stencil order = 5
  estimated absolute RMS force accuracy = 0.00030983815
  estimated relative force accuracy = 9.3306838e-07
  using double precision KISS FFT
  3d grid and FFT values/proc = 6210 2048
WARNING: Fix recenter should come after all other integration fixes (../fix_recenter.cpp:133)

write_restart   restart.${NAME}
write_restart   restart.ar
System init for write_restart ...
PPPM initialization ...
  using 12-bit tables for long-range coulomb (../kspace.cpp:340)
  G vector (1/distance) = 0.26230706
  grid = 32 32 32
  stencil order = 5
  estimated absolute RMS force accuracy = 0.00030983815
  estimated relative force accuracy = 9.3306838e-07
  using double precision KISS FFT
  3d grid and FFT values/proc = 6210 2048
WARNING: Fix recenter should come after all other integration fixes (../fix_recenter.cpp:133)






Total wall time: 3:59:20
