variable        infile index box.lmp
variable        mytemp index 200.0
variable        pressure index 1.0
variable        seed index 242321
variable	dt index 1.0

units           real
special_bonds   lj 0.0 0.0 0.5 coul 0.0 0.0 0.8333
#neighbor        2.0 bin
#neigh_modify    delay 0 every 1 check yes page 1000000 one 20000
atom_style      full
pair_style	 lj/cut/coul/long 12.0

bond_style	 harmonic
dihedral_style	 charmm
angle_style	 harmonic
improper_style	 cvff

read_data       ${infile}
read_data       box.lmp
Reading data file ...
  orthogonal box = (-15.000000 -19.000000 -22.000000) to (15.000000 19.000000 22.000000)
  2 by 3 by 4 MPI processor grid
  reading atoms ...
  4096 atoms
  scanning bonds ...
  3 = max bonds/atom
  scanning angles ...
  3 = max angles/atom
  scanning dihedrals ...
  4 = max dihedrals/atom
  scanning impropers ...
  1 = max impropers/atom
  reading bonds ...
  3584 bonds
  reading angles ...
  4608 angles
  reading dihedrals ...
  4096 dihedrals
  reading impropers ...
  1536 impropers
Finding 1-2 1-3 1-4 neighbors ...
  special bond factors lj:    0        0        0.5     
  special bond factors coul:  0        0        0.8333  
     3 = max # of 1-2 neighbors
     4 = max # of 1-3 neighbors
     6 = max # of 1-4 neighbors
     7 = max # of special neighbors
  special bonds CPU = 0.022 seconds
  read_data CPU = 0.125 seconds

kspace_style    pppm 1E-4
kspace_modify   mesh 32 32 32
pair_modify     mix arithmetic tail yes

timestep        ${dt}
timestep        1.0

minimize       1.0e-4 1.0e-6 100 1000
WARNING: Using 'neigh_modify every 1 delay 0 check yes' setting during minimization (../min.cpp:188)
PPPM initialization ...
  using 12-bit tables for long-range coulomb (../kspace.cpp:340)
  G vector (1/distance) = 0.26105858
  grid = 32 32 32
  stencil order = 5
  estimated absolute RMS force accuracy = 0.00040651563
  estimated relative force accuracy = 1.2242097e-06
  using double precision KISS FFT
  3d grid and FFT values/proc = 6210 2048
Neighbor list info ...
  update every 1 steps, delay 0 steps, check yes
  max neighbors/atom: 2000, page size: 100000
  master list distance cutoff = 14
  ghost atom cutoff = 14
  binsize = 7, bins = 5 6 7
  1 neighbor lists, perpetual/occasional/extra = 1 0 0
  (1) pair lj/cut/coul/long, perpetual
      attributes: half, newton on
      pair build: half/bin/newton
      stencil: half/bin/3d
      bin: standard
Per MPI rank memory allocation (min/avg/max) = 11.30 | 11.37 | 11.77 Mbytes
Step Temp E_pair E_mol TotEng Press 
       0            0    5737.4839    13044.405    18781.889    121888.59 
     100            0     3796.928    206.36609    4003.2941   -481.68665 
Loop time of 0.861278 on 24 procs for 100 steps with 4096 atoms

99.6% CPU use with 24 MPI tasks x no OpenMP threads

Minimization stats:
  Stopping criterion = max iterations
  Energy initial, next-to-last, final = 
       18781.888968343   4007.37389997888   4003.29412917587
  Force two-norm initial, final = 4316.1878 78.854913
  Force max component initial, final = 92.173676 6.1341309
  Final line search alpha, max atom move = 0.0053049776 0.032541427
  Iterations, force evaluations = 100 199

MPI task timing breakdown:
Section |  min time  |  avg time  |  max time  |%varavg| %total
---------------------------------------------------------------
Pair    | 0.38501    | 0.47148    | 0.57804    |   8.2 | 54.74
Bond    | 0.0089315  | 0.010421   | 0.012234   |   0.8 |  1.21
Kspace  | 0.18801    | 0.29551    | 0.38257    |  10.5 | 34.31
Neigh   | 0.011045   | 0.011088   | 0.011141   |   0.0 |  1.29
Comm    | 0.062441   | 0.0638     | 0.064815   |   0.3 |  7.41
Output  | 5.719e-05  | 5.9295e-05 | 8.7631e-05 |   0.0 |  0.01
Modify  | 0          | 0          | 0          |   0.0 |  0.00
Other   |            | 0.008924   |            |       |  1.04

Nlocal:        170.667 ave         193 max         155 min
Histogram: 3 2 6 3 1 1 4 3 0 1
Nghost:        5447.21 ave        5549 max        5295 min
Histogram: 2 4 1 1 0 0 2 6 4 4
Neighs:        80232.4 ave       96189 max       67454 min
Histogram: 2 4 4 2 3 2 2 1 2 2

Total # of neighbors = 1925577
Ave neighs/atom = 470.11157
Ave special neighs/atom = 6.0000000
Neighbor list builds = 3
Dangerous builds = 0

velocity        all create ${mytemp} ${seed}
velocity        all create 200.0 ${seed}
velocity        all create 200.0 242321

dump            1 all custom 10000 ${NAME}.lammpstrj id type xu yu zu
dump            1 all custom 10000 ar.200.lammpstrj id type xu yu zu
thermo_style    custom step vol temp press ke pe ebond eangle edihed eimp emol evdwl etail ecoul elong enthalpy density lx ly lz
thermo          200

fix             1 all npt temp ${mytemp} ${mytemp} $(100.0*dt) iso ${pressure} ${pressure} $(1000.0*dt)
fix             1 all npt temp 200.0 ${mytemp} $(100.0*dt) iso ${pressure} ${pressure} $(1000.0*dt)
fix             1 all npt temp 200.0 200.0 $(100.0*dt) iso ${pressure} ${pressure} $(1000.0*dt)
fix             1 all npt temp 200.0 200.0 100 iso ${pressure} ${pressure} $(1000.0*dt)
fix             1 all npt temp 200.0 200.0 100 iso 1.0 ${pressure} $(1000.0*dt)
fix             1 all npt temp 200.0 200.0 100 iso 1.0 1.0 $(1000.0*dt)
fix             1 all npt temp 200.0 200.0 100 iso 1.0 1.0 1000

run             2000000
PPPM initialization ...
  using 12-bit tables for long-range coulomb (../kspace.cpp:340)
  G vector (1/distance) = 0.26105858
  grid = 32 32 32
  stencil order = 5
  estimated absolute RMS force accuracy = 0.00040651563
  estimated relative force accuracy = 1.2242097e-06
  using double precision KISS FFT
  3d grid and FFT values/proc = 6210 2048
Per MPI rank memory allocation (min/avg/max) = 10.18 | 10.25 | 10.64 Mbytes
Step Volume Temp Press KinEng PotEng E_bond E_angle E_dihed E_impro E_mol E_vdwl E_tail E_coul E_long Enthalpy Density Lx Ly Lz 
     100        50160          200    1743.1264    2441.2834    4003.2941     23.80214    136.98855    38.631836    6.9435628    206.36609    -2728.797   -77.446868    25796.028   -19270.303    7719.7306   0.95023294           30           38           44 
     200     50619.98     115.4907    1862.2179    1409.7277    5236.7795    343.11579    510.09327      293.886    47.567287    1194.6623   -2548.3658   -76.743113    25851.329   -19260.846    8021.2719   0.94159823    30.091424    38.115803    44.134088 
     400    52721.399    136.93656    1029.9147    1671.5048    5600.7623    553.79896    637.37736    328.46062    53.767705    1573.4046   -2467.5077   -73.684215    25786.857   -19291.992    8064.1557   0.90406714    30.502192     38.63611    44.736549 
     600    54040.489    186.26041    661.90918    2273.5722    5694.9359    554.18509    576.11223    408.28079    66.533386    1605.1115   -2373.8188   -71.885635    25780.445   -19316.801    8490.1754   0.88199949    30.754488    38.955685    45.106583 
     800    55145.986    200.31981    135.03019    2445.1871     6023.871    694.91798    649.02131    421.69776    69.010854    1834.6479   -2311.3508   -70.444562    25818.717   -19318.144    8577.6558   0.86431828    30.962787    39.219531    45.412088 
    1000    56073.883    181.22819    -1204.793    2212.1469    6308.5548    835.22485    757.75658    437.94451    74.163989    2105.0899   -2261.4283   -69.278864     25785.93   -19321.037     7535.446   0.85001576    31.135484     39.43828    45.665377 
    1200    56508.514    199.63221   -91.755659    2436.7941    6001.9116    689.58402    590.66571    417.99803    68.123986    1766.3717   -2263.2252    -68.74601    25815.084   -19316.319    8363.0881   0.84347792    31.215721    39.539914    45.783058 
    1400    56361.509    204.20821    576.43336    2492.6506    6079.6285    700.30145    653.69479    438.45859    76.040697    1868.4955    -2227.707   -68.925317    25759.809   -19320.969    9046.0928   0.84567793    31.188629    39.505597    45.743322 
    1600    56520.974    204.38538    979.85993    2494.8133    5988.4515    659.28425    609.60324    412.84813    67.152487    1748.8881   -2240.3827   -68.730855    25798.019   -19318.072    9290.9637   0.84329198    31.218015     39.54282    45.786423 
    1800     56321.03    204.68859    908.18381    2498.5143    5995.5363    637.29367    677.03911    432.62405    68.027742    1814.9846   -2242.0701   -68.974855    25744.501   -19321.879    9240.0186   0.84628573    31.181161    39.496137    45.732369 
    2000    56014.589    200.97792     43.81852    2453.2203    6078.2015    674.63744     689.4813    417.47963    65.318526    1846.9169   -2247.0839   -69.352198    25797.283   -19318.914    8567.2179   0.85091553    31.124506    39.424374    45.649275 
    2200    55835.413    196.89093   -854.76948    2403.3328    6036.8788    696.64363    652.05733    435.88805    64.586863    1849.1759   -2257.4288    -69.57475    25767.017   -19321.885     7744.171   0.85364613    31.091284    39.382293     45.60055 
    2400    55584.133    202.92187   -627.28221     2476.949    5974.9032    654.33562    625.72593    426.24208    71.816778    1778.1204   -2274.4199   -69.889278    25794.134   -19322.931    7943.3537   0.85750522    31.044573    39.323126     45.53204 
    2600    55338.109    202.55008    196.94618    2472.4108     6036.061    684.67383    702.89834    430.46408    65.174182    1883.2104   -2285.1627   -70.199994      25760.2   -19322.187    8667.4171   0.86131754    30.998703    39.265023    45.464764 
    2800    55294.859    196.63113    21.601961    2400.1616     5976.638    675.56168    675.32858    421.64833    66.987571    1839.5262   -2293.2812   -70.254902    25754.944   -19324.551    8394.2198   0.86199125    30.990625    39.254791    45.452916 
    3000    55177.312    201.12996    438.67179    2455.0761     5964.147    663.90938    683.04843    431.56091    74.088184    1852.6069   -2287.9098   -70.404569    25724.292   -19324.842    8772.2243   0.86382758    30.968649    39.226955    45.420685 
    3200    55232.216    199.92429    13.621143    2440.3592    6017.0337    666.65156    695.49623      448.857    73.222547    1884.2273   -2288.1367   -70.334583    25742.897   -19321.954    8468.3648   0.86296888    30.978917    39.239962    45.435745 
    3400    55196.098    194.01617    343.29603    2368.2423    5964.2795    676.80246    658.78847    437.85652    67.671323    1841.1188   -2299.1028   -70.380607    25746.882   -19324.619    8608.8677   0.86353358    30.972163    39.231407    45.425839 
    3600    55175.765    203.96136   -187.92329    2489.6374    5940.9131    667.41704    643.25611    438.39486     72.57085    1821.6389    -2287.938   -70.406544    25732.691   -19325.479     8279.332   0.86385181    30.968359    39.226589    45.420261 
    3800    55179.808    199.95814   -1214.1594    2440.7725    5986.3307    679.19735    678.19813    454.64931    69.463379    1881.5082   -2318.1914   -70.401385    25742.032   -19319.018    7450.0194   0.86378852    30.969116    39.227547     45.42137 
    4000    55042.809    198.89107   -615.29974    2427.7474    5948.4223    683.15233    652.78305    446.44656    69.058228    1851.4402   -2301.3355    -70.57661    25725.313   -19326.995    7882.2421   0.86593844    30.943465    39.195056    45.383749 
    4200     55060.74     201.0841    339.86645    2454.5164     5959.713    675.12326    702.92331    430.37373    66.303467    1874.7238   -2312.3482   -70.553626    25721.717    -19324.38    8687.1437   0.86565643    30.946825    39.199311    45.388676 
    4400    55101.655    199.10421    229.99347    2430.3491    5990.5509    684.05876    693.66903    418.84368    69.402519     1865.974   -2318.8129   -70.501237    25772.315   -19328.925    8605.7229   0.86501365    30.954488    39.209018    45.399916 
    4600    54584.992    198.70991    -538.0003    2425.5361     5923.329    676.23696    679.35024    434.74802    70.841661    1861.1769   -2357.7011   -71.168553    25747.403   -19327.549    7920.5813   0.87320127    30.857435    39.086085    45.257572 
    4800    53993.929    200.18095   -433.34295    2443.4922    5887.8391    648.53102    670.02616    442.37433    70.280442     1831.212   -2353.0383   -71.947624    25735.946    -19326.28     7990.097   0.88276006    30.745653    38.944494    45.093625 
    5000    54634.593    197.26376    167.27436    2407.8837    5990.2096    687.90461    688.72279    462.43651    70.003365    1909.0673   -2331.0849   -71.103942    25734.601   -19322.374    8531.3758   0.87240852    30.866779     39.09792    45.271276 
    5200    55250.951    199.52372    889.27684    2435.4698    5977.8965    672.28685    685.67829    444.29291    72.170045    1874.4281   -2295.2938   -70.310734    25726.542    -19327.78    9129.9264   0.86267627     30.98242    39.244398    45.440882 
    5400    55207.361    200.79669   -127.73528    2451.0082    5996.3014     675.4136    685.81027    468.46144    70.362844    1900.0482   -2336.9917   -70.366248    25753.375   -19320.131    8344.4644   0.86335741     30.97427    39.234075    45.428929 
    5600    54792.785    198.55789    139.30697    2423.6805    5992.7572    671.39639    683.53148    455.42532     75.77573    1886.1289   -2325.4576   -70.898657    25753.603   -19321.518    8527.7574   0.86988979    30.896542    39.135619    45.314928 
    5800     54611.11    199.01519    187.46315    2429.2624    5910.4495    687.04439    674.86331    434.80272    65.820186    1862.5306   -2355.1535   -71.134517      25726.6   -19323.528    8489.0163   0.87278366    30.862356    39.092318    45.264789 
    6000    54413.933    200.18465    162.74282    2443.5373    5905.9477     681.6774    672.07613     446.5031     73.30309    1873.5597   -2360.5164   -71.392283    25722.386   -19329.481    8478.6331   0.87594631    30.825168    39.045213    45.210246 
    6200    54515.382    201.04873   -113.83761    2454.0847     5960.429     687.4104    680.73883      461.412    73.062344    1902.6236    -2315.832   -71.259427    25700.011   -19326.374    8324.0069   0.87431624    30.844313    39.069463    45.238325 
    6400     54928.51    194.64687   -285.12816    2375.9409    5939.8092    677.81462    675.59564     434.7577    68.118092     1856.286   -2333.2459   -70.723472    25745.098   -19328.329    8087.3407   0.86774035    30.922031    39.167906    45.352313 
    6600     54801.85    201.79407   -157.56797    2463.1825    5970.7182     691.9336    699.06498     436.7877    77.489528    1905.2758   -2325.8166   -70.886929    25721.803   -19330.544    8307.9679   0.86974589    30.898246    39.137778    45.317427 
    6800    54712.463    195.87661   -652.25684    2390.9517    5959.3863    695.13336    679.57407    457.36403    73.229405    1905.3009   -2357.2576   -71.002742    25738.004   -19326.661    7829.8858   0.87116685    30.881437    39.116487    45.292774 
    7000    54481.471    206.00718   -211.20755    2514.6096     5885.514    652.79627    672.26697    450.22917    73.917135    1849.2095   -2349.5465   -71.303782    25711.953   -19326.102    8232.3073   0.87486045    30.837916     39.06136    45.228943 
    7200    54145.123    199.91172    633.05663    2440.2058    5956.8294    670.73426    715.23597    443.00045    71.966657    1900.9373   -2333.8283   -71.746718    25720.108   -19330.387    8896.9291   0.88029505    30.774324    38.980811    45.135676 
    7400    54249.228    201.57042     102.3434    2460.4527    5906.1726    691.11826    677.30619     429.9815    66.024129    1864.4301   -2372.2218   -71.609036     25741.77   -19327.806    8447.5962   0.87860576    30.794035    39.005778    45.164585 
    7600    54050.835    200.02987    65.906776    2441.6481    5844.7519    654.44854    672.00349    434.72415    70.853307    1832.0295   -2383.6062   -71.871876    25723.631   -19327.302    8338.3527   0.88183067    30.756451    38.958171    45.109461 
    7800    53670.658    200.50593    193.24493     2447.459    5837.1187     674.3396    677.64945    422.34998    67.077476    1841.4165   -2398.1498   -72.380981    25718.533   -19324.681    8435.8367   0.88807713     30.68417    38.866616     45.00345 
    8000    53483.047    203.88622    767.33808    2488.7202    5869.8157    673.35185     685.9249    431.31825    68.926121    1859.5211    -2391.724   -72.634883    25730.689    -19328.67    8957.0561   0.89119238    30.648375    38.821276    44.950951 
    8200    53789.218    198.99649    574.16575    2429.0341    5854.4688    662.45923    695.95813     429.5857    71.479888    1859.4829    -2391.672   -72.221442    25715.648   -19328.991    8733.9134   0.88611967    30.706748    38.895214    45.036563 
    8400    53991.005    200.74613   -271.57678     2450.391    5890.1287    685.90634    683.87209    432.55756     67.66406    1870.0001   -2374.0842    -71.95152    25722.551   -19328.338    8126.6792   0.88280786    30.745098    38.943791    45.092811 
    8600    54120.721    200.07645   -756.84105    2442.2167     5896.178    694.56143    681.16207    439.87148    71.937363    1887.5323    -2366.783   -71.779068    25705.844   -19330.415    7741.0236   0.88069196    30.769701    38.974954    45.128894 
    8800    53965.931    195.83542   -486.99854    2390.4488    5831.2853    678.73069    669.58491    420.05985    71.208982    1839.5844   -2383.2215   -71.984951    25707.605   -19332.683     7838.448   0.88321805    30.740338    38.937761    45.085829 
    9000    53676.057    196.72322   -239.94358    2401.2857    5907.7499    695.70948     692.0247    437.50003    71.157524    1896.3917   -2392.2012   -72.373701    25731.082   -19327.523    8121.2053   0.88798781    30.685199    38.867919    45.004959 
    9200    53636.369    198.87534    155.63443    2427.5553    5946.9525    689.60362    697.09083    472.07925    72.564414    1931.3381   -2389.2759   -72.427253    25728.197   -19323.307      8496.25   0.88864486    30.677635    38.858337    44.993864 
    9400    53773.046    197.51838    239.85744    2410.9917     5904.326    654.10952    714.16307    461.45244    76.672047    1906.3971   -2388.8707   -72.243163    25714.219   -19327.419    8503.4198   0.88638617     30.70367    38.891315    45.032049 
    9600    53818.088    202.71242    60.043478    2474.3924    5868.3457    673.54698    690.20917    442.90916    65.005301    1871.6706   -2363.9888     -72.1827    25692.642   -19331.978    8389.8651   0.88564432    30.712241    38.902171    45.044619 
    9800    54048.221    200.48716   -562.19002    2447.2299    5917.3551    707.08751    689.59479    432.26078    69.567886     1898.511   -2373.6307   -71.875351    25720.798   -19328.324    7921.4455   0.88187331    30.755955    38.957543    45.108734 
   10000    54252.395    197.52669   -635.29599    2411.0932    5926.4257    707.36058    705.77616    444.49409    70.415378    1928.0462   -2362.7827   -71.604855     25689.23   -19328.068    7834.8628   0.87855446    30.794634    39.006537    45.165464 
   10200    53774.361    198.59305    112.64839    2424.1096    5849.0801    686.73508    678.51248    426.07224    71.554694    1862.8745   -2398.3884   -72.241396    25714.489   -19329.895    8361.5335   0.88636449     30.70392    38.891633    45.032417 
   10400    53304.703      201.899    1106.5668    2464.4634    5858.6511     662.1884    714.14698     442.3391    77.303209    1895.9777   -2377.0936   -72.877901    25670.094   -19330.327    9183.3533   0.89417409    30.614271    38.778077    44.900931 
   10600    53681.789    201.10504   -398.46754     2454.772    5850.4369    682.91863    675.95396    434.09128    63.457982    1856.4218   -2436.4687   -72.365972    25756.921   -19326.437    7993.2511   0.88789298    30.686292    38.869303    45.006561 
   10800    53735.973    205.87144   -864.99808    2512.9527    5880.4532    701.31473    708.19734    433.58852    74.761983    1917.8626    -2405.073   -72.293003    25696.025   -19328.361    7715.5208   0.88699769    30.696613    38.882376    45.021698 
   11000    53713.498     198.5597   -815.85813    2423.7025    5874.5227    683.04626    656.56678    454.52966     69.02043    1863.1631   -2385.5845   -72.323253    25724.871   -19327.927    7659.1176   0.88736883    30.692332    38.876954    45.015421 
   11200     53625.88    203.07483   -285.51849    2478.8161    5841.6454     674.9246    671.45694    442.85123    70.755245     1859.988   -2384.6845    -72.44142    25695.447   -19329.105    8097.1637   0.88881868    30.675635    38.855804    44.990931 
   11400    53721.973    203.32765    909.45562    2481.9022    5935.3277    689.20692    707.69725    457.44066    78.789227     1933.134   -2383.4662   -72.311843    25717.292   -19331.632      9129.77   0.88722885    30.693946    38.878999    45.017788 
   11600    53964.152    199.20949     1206.766    2431.6341    5882.4995    658.84879    704.31241    445.31261    75.728516    1884.2023   -2396.9622   -71.987324    25723.256   -19327.997    9263.8727   0.88324717        30.74    38.937333    45.085333 
   11800    53805.539    200.60406   -82.255775    2448.6568    5880.6421    693.69893    691.59676    442.53656    72.908659    1900.7409   -2384.4428   -72.199535     25695.57   -19331.226    8264.7529   0.88585088    30.709853    38.899147    45.041118 
   12000    53800.656    203.26045   -682.08097    2481.0819    5957.0257    714.06108    683.41118    470.34663    80.937284    1948.7562   -2364.1244   -72.206088    25706.342   -19333.949    7902.9281   0.88593128    30.708924    38.897971    45.039755 
   12200    54111.254    200.49226   -899.33745    2447.2922    5882.1768     698.6576    692.52241    438.42824    71.096729     1900.705   -2396.5684   -71.791625    25709.121   -19331.081    7619.7504   0.88084604    30.767906    38.972681    45.126263 
   12400    53931.928     201.6663    101.12939     2461.623     5901.605     673.0914    690.07805    447.21225    69.883331     1880.265   -2368.9633   -72.030336    25716.997   -19326.694    8442.7704   0.88377489     30.73388    38.929582    45.076358 
   12600     53669.33     202.4322    -109.2344    2470.9719    5910.5998     678.9019    670.20944      478.508    72.216271    1899.8356   -2383.7616   -72.382772    25721.957   -19327.431    8296.0727   0.88809911    30.683917    38.866295    45.003079 
   12800     53208.21    200.53175    145.92112    2447.7742    5864.5708    675.82605    679.97658    465.31833    74.161887    1895.2828   -2406.1309   -73.010066    25706.797   -19331.378     8425.578   0.89579568    30.595787    38.754663    44.873821 
   13000    52903.081    200.60904   -477.98681    2448.7177    5814.5804     671.2057    675.85513    460.38098    75.799725    1883.2415   -2431.3351   -73.431166    25694.646   -19331.972    7894.5134   0.90096236     30.53719     38.68044    44.787878 
   13200    52843.615    195.74586   -461.14206    2389.3556    5782.7264    658.53974    675.68886    457.41345    75.609492    1867.2515     -2434.06   -73.513798    25680.607   -19331.072    7816.6937   0.90197621    30.525744    38.665942    44.771091 
   13400    53035.884    199.98619   -42.750048    2441.1149    5847.1975    680.85233    685.78056    471.60367    71.332741    1909.5693        -2412   -73.247292    25681.511   -19331.883    8255.2463   0.89870632    30.562721     38.71278    44.825324 
   13600     53245.73    199.13008    245.22631    2430.6649     5827.429     674.1495    694.10825    445.57554    73.934846    1887.7681   -2431.2745   -72.958619    25700.108   -19329.172    8448.5205   0.89516445    30.602977    38.763771    44.884366 
   13800    53119.956    199.42181    214.28242    2434.2258    5920.7742    728.81207    719.16602    457.96145    77.663424     1983.603    -2415.743   -73.131365    25682.156   -19329.242    8521.0046   0.89728396    30.578862    38.733225    44.848997 
   14000    53281.125    199.95517   -422.89089    2440.7362    5843.3378    680.60827    695.39992    451.40059     69.24781    1896.6566   -2406.8248   -72.910151    25683.951   -19330.445    7955.4664   0.89456977    30.609757    38.772358     44.89431 
   14200    53537.397    202.87049   -356.64832    2476.3218    5821.2893    686.26092    668.14814    427.20249    73.477309    1855.0889   -2405.7048   -72.561146    25699.916   -19328.011    8019.1443   0.89028766    30.658754    38.834421    44.966172 
   14400    53236.695     202.2565    281.89203    2468.8272     5893.656    703.80009    720.95631    447.83828    71.113319     1943.708   -2421.9728   -72.971001    25703.724   -19331.803    8581.3449   0.89531637    30.601246    38.761578    44.881827 
   14600    53120.411    201.11625    695.33543    2454.9088    5804.4504    667.45671    683.19284    441.46084    70.871805    1862.9822   -2413.4354   -73.130738    25684.911   -19330.007    8798.0402   0.89727626    30.578949    38.733335    44.849125 
   14800    53145.255    197.87633    462.21385    2415.3611    5853.5729    673.35085    688.57791     459.6697    73.812154    1895.4106   -2428.9863   -73.096552    25716.055   -19328.906    8627.1816   0.89685681    30.583715    38.739373    44.856116 
   15000    52893.942    204.85138    207.63721    2500.5014    5837.3692    682.09937    674.56789     449.2441     80.66154    1886.5729   -2411.6247   -73.443853    25691.271    -19328.85    8498.0427   0.90111802    30.535431    38.678213    44.785299 
   15200    53004.242     197.5477   -877.58281    2411.3496    5843.3383    682.72107    685.51597    462.92495    74.662513    1905.8245   -2424.7721   -73.291018    25694.974   -19332.688    7576.3054   0.89924282    30.556642     38.70508    44.816408 
   15400    53373.013    198.13525   -646.73214    2418.5215    5882.5416    681.24043    711.76269    469.15797    83.204637    1945.3657   -2425.3834   -72.784628    25692.597   -19330.038    7797.6528   0.89302967    30.627343    38.794634    44.920103 
   15600    53297.413     200.9944    269.35139    2453.4215    5946.2341    704.49488    716.98204    504.84347    78.651005    2004.9714   -2428.4164   -72.887869    25701.271   -19331.592    8609.0192   0.89429639    30.612875    38.776309    44.898884 
   15800    53164.017    208.08361    1066.1137    2539.9553    5852.8833    672.63104    712.16933    444.05331    77.319755    1906.1734   -2415.0251   -73.070755    25693.431   -19331.696     9219.442    0.8965403    30.587314    38.743931    44.861394 
   16000    53163.032     202.8106    650.98585    2475.5908    5801.1447    652.39982    679.52269    457.82496     80.19795    1869.9454   -2441.3654   -73.072109    25702.202   -19329.638    8781.4632   0.89655692    30.587125    38.743692    44.861117 
   16200    52976.155    201.46494   -538.61093    2459.1651    5803.2852    683.51197    688.87673    456.84067     73.13456    1902.3639   -2445.4476   -73.329876    25678.184   -19331.815    7846.3179   0.89971959    30.551243    38.698242     44.80849 
   16400    52739.128    205.40081   -1198.0892     2507.208    5833.4459    682.54763    701.99907    465.77278    78.787401    1929.1069   -2444.4316   -73.659444    25682.505   -19333.734    7419.1483   0.90376321    30.505611    38.640441    44.741563 
   16600    52786.672    199.80065   -530.15721    2438.8501    5781.4781    666.73086    676.93344    468.59655    79.029603    1891.2905   -2461.4774   -73.593102    25684.154   -19332.489    7812.1922   0.90294922    30.514775    38.652048    44.755003 
   16800    53200.099    202.32742    243.87718    2469.6929    5825.7888    680.00303    683.28091    452.49678    74.318866    1890.0996   -2430.8589   -73.021197    25699.827   -19333.279    8484.6984   0.89593225    30.594232    38.752694    44.871541 
   17000    53505.283    201.70654   -112.61367    2462.1142    5871.5066    717.44097    688.27638    472.46606    74.507077    1952.6905   -2447.8401   -72.604698    25700.844   -19334.188    8245.7461   0.89082202    30.652622    38.826655    44.957179 
   17200    53152.007    199.57122   -40.496602    2436.0495    5871.6561    697.22774    693.79328    493.88255    75.947285    1960.8508   -2407.1868   -73.087267    25653.017   -19335.025     8276.314   0.89674289    30.585011    38.741013    44.858015 
   17400    53057.035    195.34125   -309.16988    2384.4168    5878.4201    686.47696    695.79931    471.09234    85.457209    1938.8258   -2422.4178   -73.218092    25695.596   -19333.584    8023.6066   0.89834805    30.566783    38.717926    44.831282 
   17600    53121.008    202.24856   -56.199256    2468.7302    5877.3936    670.75018    713.29315    476.76271    80.049183    1940.8552   -2425.7246   -73.129916    25689.676   -19327.413    8302.5854   0.89726618    30.579064    38.733481    44.849293 
   17800    53015.976    203.59999    416.47139    2485.2264    5825.4882    690.26786    679.77884    473.48955    75.830288    1919.3665   -2427.3083   -73.274798     25664.34    -19330.91    8632.7235    0.8990438    30.558896    38.707935    44.819715 
   18000    53015.449    200.23538   -570.45927    2444.1566    5827.6204    689.86976    681.01094    470.83967    80.808167    1922.5285   -2453.0222   -73.275526    25685.753   -19327.639    7830.7115   0.89905273    30.558795    38.707807    44.819566 
   18200    52877.016    203.28615   -235.29824    2481.3956    5878.5555    728.61058    664.03054    483.83892    77.198302    1953.6783   -2434.2846   -73.467363    25691.947   -19332.785    8178.4991   0.90140647    30.532174    38.674087    44.780521 
   18400     52843.79    198.45269    149.45435    2422.3964    5839.0454    694.23227    709.31561    460.94669    77.259183    1941.7538   -2461.1977   -73.513556    25689.865   -19331.376    8376.6222   0.90197324    30.525777    38.665984     44.77114 
   18600    52885.664    199.68011    1142.1699    2437.3788    5807.8163    682.47343    684.93179    457.65363    68.075425    1893.1343   -2448.0334   -73.455348    25693.743   -19331.028    9126.1315   0.90125906    30.533838    38.676195    44.782963 
   18800    52757.323    197.47849    284.73932    2410.5048    5824.8138    691.43265    705.76514    460.78328    76.677437    1934.6585    -2458.449   -73.634041    25678.882   -19330.278    8454.4003   0.90345152    30.509119    38.644884    44.746707 
   19000    52742.698    202.85115   -754.78536    2476.0858    5850.4876    731.29143     700.3149    430.97239    73.011124    1935.5899   -2434.8051   -73.654459    25678.264   -19328.561    7745.9939   0.90370204    30.506299    38.641312    44.742572 
   19200    53022.966    199.47478    -947.6411    2434.8724    5795.0797    688.78367    666.15671    466.57385    74.281601    1895.7958   -2439.7261   -73.265138    25671.103   -19332.093    7497.1549   0.89892527    30.560239    38.709636    44.821684 
   19400    53164.594    198.76457   -467.98023    2426.2033    5881.2624    713.57821    707.26318    466.15102    83.649414    1970.6418    -2435.148   -73.069963    25673.604   -19327.835    7944.6167   0.89653058    30.587425    38.744071    44.861556 
   19600    53024.747    198.22562     739.2675    2419.6246    5868.7575    715.04477     699.8984    449.04499    73.050339    1937.0385   -2436.4256   -73.262677    25701.307   -19333.162    8860.0662   0.89889508    30.560581     38.71007    44.822186 
   19800    52822.554    197.92361    950.52262    2415.9382     5752.998    669.86859    650.86388     458.3592    71.503339     1850.595   -2466.5113   -73.543109    25701.493   -19332.579    8901.1834   0.90233584    30.521688    38.660804    44.765142 
   20000    52545.818    199.86941    485.63277    2439.6894    5782.5916    713.70995    696.58822    450.91639    70.350368    1931.5649   -2467.7477   -73.930429    25651.466   -19332.691    8594.4344   0.90708805    30.468294    38.593172    44.686831 
   20200    52567.464     196.8425   -60.723439    2402.7417    5794.3005    696.36736    700.25381    455.49222    75.914656    1928.0281   -2457.2461   -73.899987    25656.673   -19333.155    8150.4891   0.90671455    30.472477     38.59847    44.692966 
   20400    52677.371    200.94875    -793.6766    2452.8643    5782.0186    694.83695    691.69869    462.75205    72.651846    1921.9395   -2476.0284   -73.745801    25669.703   -19333.595    7625.1445   0.90482276    30.493699    38.625352    44.724092 
   20600    52606.855    200.93838   -200.46301    2452.7377     5828.443    693.61239    725.36746    462.17549    69.344898    1950.5002   -2446.4294   -73.844652    25657.061   -19332.689     8127.382   0.90603561    30.480086    38.608109    44.704127 
   20800     52809.34    197.39148   -405.18768    2409.4428    5784.7014     688.6958     702.9738    450.47326    74.927077    1917.0699   -2459.7626   -73.561512    25661.611   -19334.217    7882.0808   0.90256163    30.519142     38.65758    44.761409 
   21000    52797.186    200.43731    453.91636    2446.6214    5767.4352    672.83436    690.92372    441.53061    76.692831    1881.9815   -2443.7783   -73.578446    25662.409   -19333.177    8563.5689   0.90276941    30.516801    38.654614    44.757975 
   21200    52796.862    198.62368     342.8875    2424.4835    5821.5283    700.89378    694.00001    475.50476    76.477628    1946.8762   -2431.1882   -73.578897     25641.64     -19335.8    8510.0312   0.90277493    30.516739    38.654536    44.757883 
   21400    52712.569    199.56557    -493.7362    2435.9806    5854.7231    719.86105    724.01401    442.98681    83.292907    1970.1548   -2457.1722   -73.696557    25674.853   -19333.113    7911.1397   0.90421857    30.500489    38.633953    44.734051 
   21600     52605.77    201.55274   -555.14918    2460.2369    5826.7995    702.75551    715.48445    454.77792    77.239015    1950.2569   -2447.8976   -73.846175     25653.66    -19329.22    7861.1252    0.9060543    30.479877    38.607844    44.703819 
   21800    52618.028    195.48227   -585.31184    2386.1382    5814.2103    696.51006     698.3756    459.09112    72.694641    1926.6714   -2449.5785   -73.828972    25667.717     -19330.6    7751.1919   0.90584323    30.482244    38.610842    44.707291 
   22000    52631.343    200.36867   -12.911634    2445.7835    5839.7608    701.89222    692.95049    457.90836    69.094054    1921.8451   -2447.2934   -73.810294    25693.787   -19328.578    8275.6337   0.90561406    30.484815    38.614099    44.711062 
   22200    52758.532     197.8289    572.43784    2414.7821    5862.2908    717.01873    699.24098    472.84586    80.720226    1969.8258   -2469.4666   -73.632354    25693.211   -19331.279    8717.5232   0.90343082    30.509352    38.645179    44.747049 
   22400    52864.712    199.11296    326.31141    2430.4559    5844.3874    688.84745    716.54635    456.31328    72.432397    1934.1395   -2459.2726   -73.484462      25699.8    -19330.28    8526.4221   0.90161626    30.529805    38.671087    44.777048 
   22600    52861.373    200.63052    392.74121    2448.9798    5805.1288    699.65861    676.10506    461.35965    75.841205    1912.9645   -2419.5236   -73.489104    25644.698    -19333.01    8556.8842   0.90167322    30.529163    38.670273    44.776105 
   22800     52965.25    196.97782   -86.312181    2404.3934    5781.3944    683.09365    674.01834    445.55693    77.859627    1880.5285   -2441.1854   -73.344974    25675.374   -19333.323    8119.1165   0.89990482    30.549147    38.695586    44.805416 
   23000    52757.139    203.08223    377.55497    2478.9064    5838.0396    704.88979    724.27706    456.18195    73.887063    1959.2359   -2463.2416   -73.634298    25673.582   -19331.537    8607.4401   0.90345468    30.509083    38.644839    44.746655 
   23200    52580.031     197.4288    100.00497    2409.8983    5818.7088    696.56744    718.01016    457.42444    70.694916     1942.697   -2476.5074   -73.882325    25679.559    -19327.04    8305.2935   0.90649784    30.474905    38.601546    44.696527 
   23400     52513.71    200.43191     673.1268    2446.5555    5832.7719    697.43558    697.43059    462.71282    81.281804    1938.8608   -2455.9666   -73.975632    25679.972   -19330.094    8794.8473   0.90764267    30.462086     38.58531    44.677727 
   23600    53175.818    205.03133     89.09026     2502.698    5860.7029    706.24183    708.79254    473.60858    76.601962    1965.2449   -2446.6886   -73.054539    25673.125   -19330.978    8432.4916   0.89634133    30.589577    38.746798    44.864713 
   23800    53673.913    199.81086   -1114.0076    2438.9747    5860.6396    714.71675    671.97881    472.73926     74.63158    1934.0664   -2432.0586   -72.376592    25689.686   -19331.054    7427.5926   0.88802328    30.684791    38.867401     45.00436 
   24000    52759.521    198.07928   -329.82629    2417.8384     5845.114    711.15318    706.73077    471.98261    81.636077    1971.5026   -2464.7131   -73.630973    25669.291   -19330.966    8009.1697   0.90341389    30.509542     38.64542    44.747329 
   24200    51973.286     200.5602    354.90697    2448.1215    5721.3588    686.38634    695.46827    442.66444    69.739354    1894.2584   -2497.3654   -74.744839    25653.529   -19329.063    8438.4916   0.91708045     30.35723    38.452491    44.523937 
   24400     52256.76    201.78945    547.62247    2463.1262    5787.4121    705.50575    699.10698    445.15262    71.096344    1920.8617   -2466.5226   -74.339375    25661.991   -19328.918    8667.8875    0.9121056    30.412322    38.522274    44.604738 
   24600    52818.948    199.53719    438.89728    2435.6342    5868.4578    711.70466    690.04835     450.3729    75.662462    1927.7884    -2444.579    -73.54813    25716.382   -19331.133     8642.179   0.90239745    30.520993    38.659925    44.764123 
   24800    52953.812    202.00603    67.277849    2465.7698    5863.0098    716.29235    716.97257    469.47141    70.221383    1972.9577   -2448.4798   -73.360816    25672.904   -19334.372    8380.7368    0.9000992    30.546948    38.692801     44.80219 
   25000    52655.106    196.20845   -312.82071    2395.0022    5810.9176    703.46788    705.04395    440.62425    74.156693    1923.2928   -2461.6732   -73.776984     25678.22   -19328.922    7965.6983   0.90520536    30.489402    38.619909     44.71779 
   25200    52189.148    200.84026   -263.76211      2451.54    5826.1523     704.5502    726.52701    468.14141    71.903678    1971.1223   -2463.2653   -74.435683    25653.249   -19334.954    8076.9363   0.91328726      30.3992    38.505653    44.585493 
   25400    52544.459    197.82109   -268.66235    2414.6867    5759.4806    714.40259     659.1194    467.71109    72.609919     1913.843    -2470.461   -73.932342    25651.941   -19335.842    7968.2895   0.90711152    30.468031    38.592839    44.686445 
   25600    52904.878    197.38577   -222.95818     2409.373     5807.177    708.91039    683.56004     460.6011    78.348705    1931.4202   -2420.9907   -73.428672    25636.543   -19339.796    8044.5236   0.90093175    30.537535    38.680878    44.788385 
   25800    52840.431    195.11413    58.919337    2381.6445    5877.6138    753.83463    732.01294    467.12141    75.071356    2028.0403   -2459.6438   -73.518229    25645.352   -19336.135    8304.6629   0.90203057     30.52513    38.665165    44.770191 
   26000    52520.269    202.56258   -9.6683887    2472.5633    5783.6304    702.07266    708.58897    453.38966    70.204202    1934.2555   -2477.6885   -73.966393    25661.314   -19334.251    8248.7882   0.90752931    30.463355    38.586916    44.679587 
   26200     52343.58    199.80874    769.40044    2438.9488    5761.4391    701.66788    711.02868    441.76935    66.705921    1921.1718   -2472.6931   -74.216072    25644.783   -19331.823    8787.7308   0.91059275    30.429155    38.543596    44.629427 
   26400    52397.316      198.672    87.044294    2425.0733     5790.791    721.05937    702.50013    442.94845    71.122801    1937.6308   -2480.7978   -74.139959     25668.66   -19334.702    8282.3802   0.90965888    30.439564    38.556781    44.644694 
   26600    52476.625    202.13632   -75.974646    2467.3602    5817.5017    716.51632    705.93172    444.95664    73.701253    1941.1059   -2469.1446    -74.02791    25681.599   -19336.059    8226.7172    0.9082841    30.454914    38.576224    44.667207 
   26800    52640.266    197.24419   -476.00204    2407.6448    5806.3674    725.10042    701.20363    448.65955    67.993443     1942.957   -2464.0915   -73.797783    25662.157   -19334.655    7848.5834   0.90546055    30.486538    38.616281    44.713588 
   27000     52712.02    197.32774   -261.48953    2408.6647    5805.0367    734.38883    686.69505    455.81182    72.201192    1949.0969   -2455.3448   -73.697325    25647.409   -19336.124    8012.6811   0.90422799    30.500383    38.633819    44.733896 
   27200    52574.649    203.03797    551.59986    2478.3662     5814.782    704.21659    709.48999    472.94328    66.511573    1953.1614    -2475.205   -73.889887    25667.634   -19330.808    8716.0859   0.90659062    30.473865    38.600229    44.695002 
   27400    52764.115    200.04627    1205.3954    2441.8482    5803.0929    719.40376    670.29035    439.43218    66.515802    1895.6421   -2442.0449   -73.624562    25678.945    -19329.45    9172.5055   0.90333523    30.510428    38.646542    44.748628 
   27600    52948.306    199.44075    358.08345     2434.457     5823.493    712.25931    696.46517    449.81811    71.910178    1930.4528   -2431.5944   -73.368445    25658.522   -19333.888    8534.4608    0.9001928    30.545889    38.691459    44.800637 
   27800    52826.009      203.558   -196.74552    2484.7139    5814.5191    739.56748    653.97183    459.89641    73.609474    1927.0452   -2460.0407   -73.538299    25679.409   -19331.895    8147.6576   0.90227683    30.522353    38.661647    44.766118 
   28000    52513.865    199.52908    231.06975    2435.5352    5789.5119    716.35543    681.47328    453.10677    66.096264    1917.0317   -2460.3728   -73.975414    25662.991   -19330.138    8402.0144   0.90763999    30.462116    38.585347    44.677771 
   28200    52405.978    201.55868    716.10309    2460.3093     5805.513    725.17295    676.30815    468.42007    69.475067    1939.3762   -2478.0244   -74.127706        25678   -19333.838    8813.1309   0.90950854    30.441241    38.558905    44.647154 
   28400    52573.971    207.11107    515.28551    2528.0841    5868.2925    763.66288    692.52305    455.90788    68.955468    1981.0493   -2446.7114    -73.89084    25670.036   -19336.081    8791.4653   0.90660231    30.473734    38.600063     44.69481 
   28600    53008.385    198.70587   -721.71052    2425.4868     5893.479    760.05572    716.00251    457.54935     71.48809    2005.0957   -2440.0774   -73.285291    25658.723   -19330.263     7761.031   0.89917254    30.557438    38.706088    44.817575 
   28800    52858.045    199.13522   -573.21925    2430.7276    5857.3242     734.6237    685.36663     456.2682    71.677332    1947.9359    -2445.718    -73.49373    25686.926    -19331.82    7846.1684   0.90172999    30.528522    38.669461    44.775165 
   29000    52254.771    198.90919   -236.94335    2427.9686    5757.0415    713.51819    684.21624    441.77707    73.323075    1912.8346   -2477.1919   -74.342204    25650.752   -19329.353    8004.4398   0.91214032    30.411936    38.521785    44.604172 
   29200    52223.859    202.16319    807.63006    2467.6882    5811.2773    707.83104    704.62125    456.52928    67.530163    1936.5117   -2461.8535    -74.38621    25664.401   -19327.782    8894.0819   0.91268025    30.405937    38.514187    44.595375 
   29400    52517.317     198.1752    408.61188    2419.0092    5846.2272    754.31365     693.7182    441.57873    71.158824    1960.7694   -2476.4641   -73.970551      25695.8   -19333.878    8578.1968   0.90758033    30.462784    38.586193     44.67875 
   29600    52457.215    195.18807    170.34253     2382.547    5860.5514    736.13323    715.74051    457.32031    77.952249    1987.1463   -2457.3658   -74.055302    25665.328   -19334.557    8373.4163   0.90862018    30.451159    38.571468    44.661699 
   29800    52355.417    204.46786   -207.33798      2495.82    5761.8039    715.02074     686.5155    422.76065    70.593888    1894.8908   -2469.2978   -74.199293    25668.405   -19332.194     8099.311   0.91038687    30.431448    38.546501    44.632791 
   30000    52335.683    198.82359   -937.55645    2426.9237    5767.4947    719.79057    693.45068    442.11031    71.291672    1926.6432   -2508.0671    -74.22727    25676.421   -19327.503    7478.8169   0.91073014    30.427624    38.541657    44.627182 
   30200    51933.623    201.72567   -845.18078    2462.3477    5783.7417    733.96911    693.71283    449.48903    77.957027     1955.128   -2495.9728   -74.801924    25653.899   -19329.312    7605.9506   0.91778085    30.349505    38.442707    44.512608 
   30400    51887.529     199.3058   -380.71814    2432.8098    5792.8025    730.87882    706.08761     466.5605     75.41855    1978.9455   -2498.6126   -74.868373    25647.183   -19334.714    7937.5128   0.91859614    30.340524     38.43133    44.499435 
   30600    52274.547    196.34522    361.19467    2396.6717    5773.5478     726.7373    669.91283    465.04628     80.72951    1942.4259   -2481.7721    -74.31408    25646.524    -19333.63    8445.5837   0.91179526    30.415772    38.526644    44.609798 
   30800    52425.634    202.43127    435.39286    2470.9606    5811.4695    724.04323    690.11746    468.97734    77.495257    1960.6333   -2489.2126   -74.099912    25675.869   -19335.821    8615.3202   0.90916752    30.445047    38.563726    44.652735 
   31000    52399.488    199.90161    -24.37673    2440.0824    5817.6607    734.42234    706.66133    445.61318    68.685051    1955.3819   -2481.6652   -74.136887    25676.816   -19332.872    8239.1146   0.90962119    30.439984    38.557314     44.64531 
   31200    52306.832    193.12932   -287.15663    2357.4171    5824.4274    748.89757    692.68314    453.62735    77.729324    1972.9374   -2475.8433   -74.268213    25664.483    -19337.15    7962.7895   0.91123248    30.422032    38.534574     44.61898 
   31400    52337.972    200.44863    613.38131    2446.7596    5857.2658     730.7659    707.41467    457.82315    72.566437    1968.5702    -2475.227   -74.224025    25695.522   -19331.599    8772.2167   0.91069032    30.428068    38.542219    44.627833 
   31600    52661.751    204.16924    504.30956    2492.1749    5770.5944    709.13651    703.97755    440.39186    73.435917    1926.9418   -2479.8687   -73.767674    25660.182    -19336.66     8650.088   0.90509113    30.490685    38.621534    44.719671 
   31800    52608.547    198.03601    300.81906    2417.3101    5797.8727     728.4278    686.27112    461.66266    74.483634    1950.8452   -2469.5968   -73.842276    25654.452   -19337.828    8445.9837   0.90600647    30.480413    38.608523    44.704606 
   32000     52193.59    195.78435   -88.684934    2389.8254    5853.6074    758.01408    717.20467    461.20867    72.680372    2009.1078    -2484.095   -74.429348    25660.013   -19331.418    8175.9267   0.91320953    30.400062    38.506745    44.586758 
   32200    52044.263    200.50289   -229.99958     2447.422    5761.6862    709.38937    673.69801     441.1503    73.381499    1897.6192   -2470.1658   -74.642903    25668.488   -19334.256    8034.5356   0.91582974    30.371043    38.469987    44.544196 
   32400    52362.405    198.96261   -359.40993    2428.6206    5780.4914    734.47787    708.36902    443.37743    66.768718     1952.993   -2486.9687    -74.18939    25649.025   -19334.558    7934.6479   0.91026537    30.432802    38.548216    44.634776 
   32600    52715.627    202.38205   -90.439708    2470.3597    5822.9994     728.3481    732.72409    449.47972    71.381993    1981.9339   -2500.8312   -73.692283    25674.542   -19332.646    8223.8287   0.90416612    30.501079      38.6347    44.734916 
   32800    52429.865    199.03241    888.91235    2429.4727    5772.9749    706.80693    684.19963    452.42398    73.688182    1917.1187    -2487.642   -74.093933    25679.667   -19336.169    8882.1418   0.90909416    30.445866    38.564763    44.653936 
   33000    52076.503    194.69577    952.79322    2376.5377    5698.6274    683.22142    698.79966    418.73427    72.159922    1872.9153   -2497.0754   -74.596693    25659.172   -19336.385    8798.7948   0.91526277    30.377313    38.477929    44.553392 
   33200    52033.284    196.09891    349.06775    2393.6651    5793.0543    727.17497      699.871    453.09138     76.26201    1956.3994   -2482.2285   -74.658653    25654.753    -19335.87    8451.6102   0.91602298    30.368907    38.467282    44.541063 
   33400    52401.307    198.04968    -999.5178     2417.477    5841.2875    739.06315    708.79768    471.74649    74.862273    1994.4696   -2488.2022   -74.134312    25668.163   -19333.143    7494.9137    0.9095896    30.440337     38.55776    44.645827 
   33600    52450.609    199.03735   -555.99943    2429.5329    5820.7057    732.37085    706.01623    444.99506    74.413467    1957.7956   -2466.6953   -74.064629    25663.196   -19333.591    7824.9333   0.90873462     30.44988    38.569848    44.659825 
   33800    52531.243    199.63037   -415.56677    2436.7716    5758.6908    737.34945    692.37283    448.09562    65.705371    1943.5233    -2481.135   -73.950942    25633.761   -19337.459    7877.0908   0.90733974    30.465476    38.589603    44.682698 
   34000     52604.81    202.42819   -91.520004    2470.9229    5834.5243    726.94099    727.12236    458.87119    73.160899    1986.0954   -2489.1226   -73.847522    25670.801    -19333.25    8235.2342   0.90607083    30.479691    38.607609    44.703547 
   34200    52475.786    201.16967   -381.21899     2455.561    5803.9556    731.33309    696.60333    472.58388    74.098911    1974.6192   -2485.1229   -74.029094    25648.716   -19334.256    7967.7676   0.90829862    30.454752    38.576019    44.666969 
   34400    52303.805    203.59322   -285.58546    2485.1437      5753.22    702.46578    677.92908    445.54929     68.47776    1894.4219   -2492.2415    -74.27251    25687.519   -19336.479    8020.5199    0.9112852    30.421445    38.533831     44.61812 
   34600     52296.78    200.25681   -362.99454    2444.4182    5868.5886    755.22463    719.39884    461.35479    74.711819    2010.6901   -2459.4857   -74.282487    25650.119   -19332.735    8036.1527   0.91140762    30.420083    38.532105    44.616122 
   34800    52593.683     199.8344     -558.781     2439.262    5784.4503    717.82385    702.67787    443.70161    61.545283    1925.7486   -2472.8087   -73.863146    25665.661   -19334.151    7795.1133   0.90626252    30.477542    38.604887    44.700395 
   35000    52500.216    204.55475   -545.36051    2496.8806    5829.3233    752.16079    702.65345    448.85365     79.99667    1983.6646   -2472.2327   -73.994645    25651.673   -19333.782    7908.6422   0.90787596    30.459477    38.582004      44.6739 
   35200    52233.878    200.10602   -117.07247    2442.5775    5842.6994    770.77082    707.25155    472.74237    70.524636    2021.2894   -2481.8687   -74.371941    25635.931   -19332.652    8196.0937   0.91250518    30.407882     38.51665    44.598227 
   35400    52205.149    196.81887   -164.12181    2402.4532    5809.0539     743.7085    689.07288    463.79631    82.062817    1978.6405   -2483.0706   -74.412869    25648.505   -19335.021    8086.5515   0.91300734    30.402306    38.509588    44.590049 
   35600    52093.807    203.91272    498.27199    2489.0438    5757.8141     716.0178     696.8422    450.09301    72.735379    1935.6884    -2471.417   -74.571914    25629.476   -19335.934    8625.4125   0.91495874    30.380677    38.482191    44.558326 
   35800    52107.172    203.73435    539.75267    2486.8665    5768.3395    718.14099    688.33616     453.7455    67.554536    1927.7772   -2477.5846   -74.552788    25655.502   -19337.355      8665.38   0.91472407    30.383275    38.485481    44.562136 
   36000    52308.622    196.61983    119.41529    2400.0237    5777.1369    719.25996    696.40696    459.23394    74.129479    1949.0303    -2483.957   -74.265671    25647.871   -19335.807    8268.2587    0.9112013    30.422379    38.535013    44.619489 
   36200     52343.89    196.17351     262.8304    2394.5756    5859.0039    764.05792    695.10984    486.83436    72.382921     2018.385    -2489.229   -74.215632    25665.829   -19335.981    8454.2195   0.91058735    30.429215    38.543672    44.629515 
   36400     52151.25    203.25685    211.15661    2481.0379     5771.919     715.2386    702.31936     449.5318    74.862242     1941.952   -2495.0583   -74.489775    25652.959   -19327.934    8413.5568   0.91395094    30.391839     38.49633    44.574698 
   36600    51831.631    196.74345    35.563144    2401.5327    5751.8688    732.64848    671.19366    456.70897    71.683053    1932.2342   -2491.8671   -74.949116    25643.461   -19331.959    8180.2841   0.91958682    30.329625    38.417525     44.48345 
   36800    51764.534    199.17749   -876.02681    2431.2435    5766.9008    739.98725    705.86084    459.53763    69.246259     1974.632   -2501.9994   -75.046265    25632.667   -19338.399    7536.8031   0.92077878    30.316532     38.40094    44.464246 
   37000    51795.755     200.5449   -4.0130951    2447.9347    5779.7875    723.52007     705.9088    452.33821    75.045227    1956.8123   -2496.3039   -75.001028    25653.688   -19334.409    8224.6907   0.92022375    30.322625    38.408659    44.473184 
   37200    51987.439    199.45952    179.87133     2434.686    5769.7008    712.69215    697.17042    475.58103    71.854438     1957.298    -2511.406    -74.72449    25658.038    -19334.23    8340.7623   0.91683077    30.359985    38.455981    44.527978 
   37400    52137.172    201.56223    42.338494    2460.3526    5814.6377    746.46184    717.88836     467.7766     75.60844    2007.7352   -2511.2326   -74.509889    25651.554   -19333.419    8307.1832   0.91419773    30.389104    38.492866    44.570687 
   37600    52096.883    201.95588   -307.42737    2465.1577    5761.7957    721.65142    693.32832     455.8823     75.34942    1946.2115   -2499.4184   -74.567511    25647.127   -19332.125    7993.3764   0.91490473    30.381275    38.482948    44.559203 
   37800    51904.794    200.72673   -266.17981    2450.1542    5748.0344    720.07893    719.48147    446.78179    72.385984    1958.7282   -2514.3803    -74.84347     25639.59   -19335.903    7996.6964    0.9182906    30.343889    38.435592     44.50437 
   38000    51576.027    201.58055    846.02147    2460.5763    5841.0158    743.84646    738.70438    473.00565    81.389573    2036.9461   -2512.6174   -75.320554    25655.783   -19339.096    8937.9554   0.92414416    30.279686    38.354269    44.410207 
   38200    51653.453    199.18631    735.26048    2431.3512    5749.2381    721.89074    702.13992    463.26257    75.458269    1962.7515    -2520.615   -75.207651    25643.762   -19336.661    8734.4703   0.92275891    30.294831    38.373452    44.432419 
   38400    51982.835    198.90837    -686.3374    2427.9586     5725.778    723.31041    714.17182    463.88125    72.910583    1974.2741   -2531.9896   -74.731109    25622.833    -19339.34    7633.4129   0.91691198    30.359089    38.454846    44.526663 
   38600    51694.832    200.21645   -518.03889    2443.9255    5735.7792    711.27647    702.40791    479.46593    70.910378    1964.0607   -2520.3554   -75.147451    25629.702   -19337.628    7789.1469   0.92202029    30.302918    38.383697     44.44428 
   38800    51463.923     204.5726   -158.59838    2497.0985    5726.8453    727.78215      703.145     469.1778    72.349537    1972.4545   -2522.6037   -75.484624    25611.971   -19334.976     8104.908   0.92615723    30.257732    38.326461    44.378007 
   39000    51681.898    198.33521  -0.91352838    2420.9623    5739.2696    723.09098    707.40137    477.72812    69.164925    1977.3854    -2528.656   -75.166258    25628.195   -19337.655    8159.5434   0.92225104    30.300391    38.380495    44.440573 
   39200    51819.052    202.03975     -287.957    2466.1814    5752.7176    722.56885    672.69536    490.05567    81.489735    1966.8096   -2529.7886    -74.96731    25653.131   -19337.435     8001.282   0.91981004    30.327171    38.414417    44.479851 
   39400    51716.211    207.20284    691.29963    2529.2043     5795.106    745.53658    696.64175    477.55676    73.744965    1993.4801   -2492.5578   -75.116386    25630.674   -19336.491    8845.7077   0.92163913    30.307095    38.388987    44.450406 
   39600    52032.026     194.6176    618.14189    2375.5836    5846.1196    738.06353    743.79528    476.53417    82.558856    2040.9518   -2517.4636   -74.660457    25653.673   -19331.041    8690.7701   0.91604513    30.368662    38.466972    44.540704 
   39800    52026.233    197.32345    104.09833    2408.6124    5787.6109     751.8093    716.39455    462.76655    70.528395    2001.4988   -2487.1798   -74.668771    25606.857   -19333.565    8275.2078   0.91614713    30.367535    38.465544    44.539051 
   40000    51753.876    204.31604    -1057.051    2493.9668    5774.4065    744.77234    725.49339    453.21439    77.629159    2001.1093   -2523.2216   -75.061719     25630.08   -19333.561    7470.5353   0.92096839    30.314451    38.398304    44.461195 
   40200     51699.36    198.16142   -288.65005    2418.8409    5749.1281    728.12231    706.80657    454.79511    68.292918    1958.0169   -2513.1863    -75.14087    25639.525   -19335.227     7950.332   0.92193954    30.303803    38.384817    44.445578 
   40400    51789.602    201.24151    723.10946    2456.4379    5721.1613    704.74473    723.91589    452.17161    70.942865    1951.7751   -2534.6391   -75.009939     25637.95   -19333.925    8723.7624   0.92033308    30.321425    38.407138    44.471423 
   40600    51625.076    200.91245    1251.9609    2452.4212    5820.3751    726.71934     720.6459     480.2305    73.873543    2001.4693   -2497.0921   -75.248992    25651.444   -19335.446    9215.3961   0.92326614    30.289282    38.366424     44.42428 
   40800    51915.064    196.73046     -1250.82     2401.374    5762.1608     730.2348     718.2718    477.87701     71.88005    1998.2637   -2545.1446   -74.828665    25645.708   -19336.666     7216.504   0.91810894     30.34589    38.438127    44.507305 
   41000     51680.36    198.62809   -1124.0285    2424.5374    5762.6384    745.44385    719.46883    463.58299    74.608026    2003.1037   -2521.8254   -75.168495    25620.296   -19338.935    7339.9898   0.92227848     30.30009    38.380114    44.440132 
   41200     51372.57    201.96179    503.81596    2465.2299    5768.9495    745.88867    714.71939    466.54019    76.090875    2003.2391   -2503.7792   -75.618855    25606.105   -19336.615    8611.6465   0.92780417    30.239818     38.30377    44.351733 
   41400    51700.068     200.5589    1161.3433    2448.1056    5720.9621    724.04872    694.63903     460.6712    78.657066     1958.016   -2550.4216   -75.139842    25649.753   -19336.385    9044.7117   0.92192692    30.303941    38.384992    44.445781 
   41600    51648.287    200.60548    929.21737    2448.6741      5707.44    723.50775    692.58835    459.60932    68.778959    1944.4844   -2533.3861   -75.215174    25633.309   -19336.967    8856.0353   0.92285122    30.293821    38.372173    44.430937 
   41800    51658.759    201.96495   -373.97707    2465.2684    5751.1536    733.11786    724.38412     455.1615    77.481406    1990.1449   -2518.5828   -75.199926    25616.274   -19336.682    7934.6714   0.92266413    30.295868    38.374766     44.43394 
   42000    51723.692    195.52688     -1466.43    2386.6827    5726.1353    728.08534    692.75243    469.87839     70.62015    1961.3363   -2522.6318   -75.105522    25623.191    -19335.76    7006.6355   0.92150583    30.308556    38.390838    44.452549 
   42200    51537.384    200.27625   -838.78826    2444.6554    5741.2658    726.22696     693.8622     467.1258     74.39516    1961.6101   -2516.8854   -75.377029    25629.965   -19333.424    7555.4712   0.92483709    30.272122    38.344688    44.399113 
   42400    51611.421    200.30173    453.72392    2444.9664    5734.0424    696.73971    722.35445    462.14155    74.011811    1955.2475   -2535.0145     -75.2689    25649.396   -19335.587    8520.5267    0.9235104    30.286611    38.363041    44.420363 
   42600    51664.687    196.57079    1603.5876     2399.425    5731.6589    712.53537    698.25497    462.94973    71.369187    1945.1093   -2531.7428   -75.191298    25654.278   -19335.986    9339.3494   0.92255827    30.297027    38.376234     44.43564 
   42800    51399.181    200.31811    1261.4362    2445.1664    5703.2565    715.27779    689.52074    461.30113    74.306772    1940.4064   -2553.0593   -75.579704    25653.091   -19337.182     9094.001    0.9273238    30.245039    38.310382     44.35939 
   43000     51251.36    197.10621   -386.02794    2405.9607     5779.923     729.9348    724.01736    486.95376    77.052479    2017.9584    -2530.867   -75.797694    25631.145   -19338.314    7897.3476   0.92999843    30.216017    38.273621    44.316824 
   43200    51490.302    198.11727   -551.79062     2418.302    5739.3378    748.94797    690.74852    456.09542    76.463872    1972.2558   -2543.2726   -75.445953    25648.133   -19337.778    7743.2819   0.92568275    30.262901    38.333008    44.385588 
   43400    51789.891    204.24248   -273.09794    2493.0689    5758.5189    716.39292    732.90376    460.57972    74.913308    1984.7897   -2537.3528   -75.009521    25646.988   -19335.906    8045.3163   0.92032795    30.321481    38.407209    44.471506 
   43600    51929.491    201.26487    216.82127    2456.7229    5779.4901    737.92235    714.24094    465.10975    77.627003       1994.9   -2528.5336   -74.807875    25648.868   -19335.745    8400.4201   0.91785386    30.348701    38.441687    44.511428 
   43800     51469.02    198.59667   -73.931217    2424.1538    5736.5748     739.9785    700.94356    466.66316    75.296758     1982.882   -2532.5092   -75.477149    25625.667   -19339.465    8105.2342   0.92606551    30.258731    38.327726    44.379472 
   44000    50998.532    198.27243   -213.20333     2420.196     5657.447    696.94133    690.35117    466.34513    75.338854    1928.9765   -2565.5777   -76.173465    25631.907   -19337.859    7919.0707   0.93460894    30.166249    38.210581    44.243831 
   44200    50949.972    194.81611    245.11293    2378.0067    5669.9722    720.37697    707.22809    460.07883    78.813321    1966.4972    -2570.979   -76.246066    25612.174    -19337.72    8230.1108   0.93549972    30.156671     38.19845    44.229784 
   44400    51474.235    198.03567    146.93555     2417.306    5738.7256    734.96107    694.73817    459.44616    71.788472    1960.9339   -2549.2891   -75.469503    25663.416   -19336.335     8266.336   0.92597169    30.259753     38.32902    44.380971 
   44600    51903.931    200.24646   -92.598264    2444.2918    5767.0896    712.01453    714.89712    477.64466    76.431893    1980.9882   -2486.9552   -74.844715    25609.346   -19336.289    8141.2877   0.91830587     30.34372    38.435379    44.504123 
   44800    52081.363    202.29211   -781.64273    2469.2618     5820.686    767.81163    752.60927    460.60825    70.800015    2051.8292   -2506.0513   -74.589731    25611.628   -19336.719    7696.2485   0.91517735    30.378258    38.479126    44.554778 
   45000    51769.046    200.37663   -389.19187    2445.8807    5745.6401    739.99917    696.55647    458.71179    65.573797    1960.8412   -2511.1721   -75.039724    25629.274   -19333.303    7897.6816   0.92069853    30.317412    38.402056    44.465538 
   45200    51299.777    201.77547     371.9084    2462.9556    5684.2916    729.60342    713.70469    443.18249    69.219726    1955.7103   -2537.4208   -75.726155    25606.505   -19340.503    8425.4922   0.92912069    30.225529     38.28567    44.330775 
   45400    51379.326    193.92617    818.66836    2367.1437    5727.1807    713.21912    718.42984    463.42966    69.624813    1964.7034   -2540.4179    -75.60891    25638.438   -19335.543    8707.7647   0.92768215    30.241144    38.305449    44.353678 
   45600     51440.68    204.20341    910.39312     2492.592    5676.5964    724.98987     683.1867    458.07883    78.760779    1945.0162    -2561.704   -75.518732    25630.189   -19336.905     8852.174   0.92657571    30.253176     38.32069    44.371325 
   45800    51381.089    201.98711    716.21192    2465.5389    5688.6437    707.22364    700.42471    457.65792    77.827535    1943.1338   -2528.5934   -75.606317    25615.254   -19341.151    8690.8693   0.92765033     30.24149    38.305887    44.354185 
   46000    51526.956    196.58033   -792.41679    2399.5415    5702.6666    762.33688    708.86673    421.92848    63.624449    1956.7565   -2544.6564   -75.392284    25628.238   -19337.672    7506.7324   0.92502426     30.27008    38.342102    44.396118 
   46200    51446.468    204.41266   -542.26717    2495.1462    5677.3111    749.75212    697.76119    443.51959    71.681612    1962.7145   -2558.2345   -75.510236    25609.537   -19336.706    7765.5976   0.92647146    30.254311    38.322127    44.372989 
   46400    51302.373    201.24242    690.54037    2456.4489    5748.9639    751.02114      699.164    447.20962    69.870307    1967.2651   -2533.9993   -75.722323    25654.605   -19338.907      8722.07   0.92907367    30.226038    38.286315    44.331523 
   46600     51611.32    199.34656     324.7596    2433.3072    5741.4852    747.49559    693.86354    480.64762    70.230328    1992.2371   -2552.3258   -75.269048     25638.17   -19336.596    8419.2384   0.92351222    30.286591    38.363016    44.420334 
   46800    51601.305    200.75686   -573.23218     2450.522     5683.567    718.39693    708.20912    448.17413    71.227836     1946.008   -2552.6804   -75.283656    25629.192   -19338.953    7702.7019   0.92369145    30.284632    38.360534    44.417461 
   47000    51382.549     203.8187   -403.64212     2487.896    5737.3625    744.20365    721.14544    461.36058    73.758577    2000.4682   -2542.6229   -75.604169    25617.812   -19338.295    7922.7845   0.92762397    30.241776     38.30625    44.354605 
   47200    51399.775    201.08683   -280.79301    2454.5498    5698.0768    742.86415    683.58707    435.29076    66.629519    1928.3715   -2549.8689   -75.578831    25655.364    -19335.79    7942.1405   0.92731309    30.245155     38.31053    44.359561 
   47400    51164.745    199.28613    237.36672    2432.5697     5637.319    698.73446    708.34606    428.08678    66.497985    1901.6653   -2544.5934    -75.92601    25617.047     -19336.8    8247.0083   0.93157279    30.198985    38.252048    44.291845 
   47600    51195.032    198.34587    119.73165    2421.0924    5677.2085    744.70563    695.39059    447.65636    68.232897    1955.9855   -2556.6712   -75.881091    25614.862   -19336.968    8187.6959   0.93102166    30.204943    38.259594    44.300583 
   47800    51468.518     201.0239    181.81484    2453.7816    5704.5821    728.61866    719.99261    450.88481    70.692133    1970.1882   -2531.0746   -75.477886    25607.588    -19342.12    8294.8367   0.92607455    30.258633    38.327601    44.379328 
   48000    51760.363    200.31335   -58.120565    2445.1083     5737.417    735.54818    699.79153    455.90209    77.076396    1968.3182   -2535.3339   -75.052312    25642.748   -19338.315    8138.6517   0.92085298    30.315717    38.399909    44.463052 
   48200    51512.829    203.39476    278.79783    2482.7213    5751.8692    731.53804     689.5937    486.44519    71.592705    1979.1696    -2525.803   -75.412959     25636.01   -19337.507    8444.0407   0.92527793    30.267314    38.338598     44.39206 
   48400    51224.866     200.3093    98.478137    2445.0588    5663.0087    727.98245    689.58497    447.64784    78.585525    1943.8008   -2558.5355   -75.836896    25616.586   -19338.843    8181.6368   0.93047942    30.210809    38.267025    44.309187 
   48600    51208.924    199.63175    502.45575    2436.7884    5681.8413    742.73841    706.61847    455.01801    68.689837    1973.0647   -2530.9439   -75.860506    25583.158   -19343.437    8493.8785    0.9307691    30.207675    38.263055     44.30459 
   48800    51831.879    201.65803    -94.28958     2461.522     5773.103    756.55741    709.15347    476.83844     76.03462    2018.5839     -2535.61   -74.948757    25628.239    -19338.11    8163.3501   0.91958241    30.329673    38.417586    44.483521 
   49000    51976.643    200.42089   -257.90234     2446.421    5779.7677    765.17325    710.16054    445.09583    68.131962    1988.5616   -2511.2163   -74.740011    25636.664   -19334.242     8030.692   0.91702121    30.357883    38.453319    44.524896 
   49200    51376.619    199.04347   -3.2035588    2429.6077    5684.2193    735.50188    683.57943    444.30054    70.444933    1933.8268   -2546.7883   -75.612895    25630.172   -19332.991    8111.4266   0.92773103    30.240613    38.304776    44.352899 
   49400    51049.683    201.62739    539.37048     2461.148    5715.6632    735.20831    686.82404    460.97409    74.669754    1957.6762   -2540.8933    -76.09714    25632.885   -19334.004    8578.3764   0.93367248    30.176331    38.223352    44.258618 
   49600    51341.515    194.66971    221.09604    2376.2196    5741.2095    733.95556    727.72163    459.62358    74.304213     1995.605   -2541.7526   -75.664594    25620.345   -19332.988    8282.9777   0.92836536    30.233724     38.29605    44.342795 
   49800    51537.496    200.95318   -85.785515    2452.9183    5722.3946    729.13006    683.56885    444.25121    72.480751    1929.4309   -2521.9667   -75.376865    25651.395   -19336.465    8110.8347   0.92483508    30.272144    38.344716    44.399145 
   50000    51870.716    201.76908   -667.57253    2462.8776    5763.0206    761.93184     719.8142    458.73325    76.067884    2016.5472   -2538.9185    -74.89264    25622.988   -19337.596    7720.8922   0.91889388    30.337247    38.427179    44.494628 
   50200    51841.514    196.24691   -82.733447    2395.4716    5758.5166    747.42835    678.92833    461.93218    67.211117       1955.5   -2515.4831   -74.934827    25653.375   -19334.875    8091.4372    0.9194115    30.331552    38.419966    44.486277 
   50400    51463.753    199.32756    160.21274    2433.0754    5725.1791    755.36086    699.80343    449.23134    74.737803    1979.1334   -2541.0176   -75.484874    25622.095   -19335.032    8278.5015   0.92616029    30.257699    38.326419    44.377958 
   50600    51120.551    201.02401    842.82806    2453.7829    5722.4558    708.30538     716.1437    469.70128    74.417054    1968.5674   -2541.2157   -75.991647     25632.01   -19336.906    8804.6014   0.93237813    30.190288    38.241031    44.279089 
   50800    51468.176     198.8798    333.75378    2427.6097    5700.5793    744.19133    690.00141    455.67186    69.397309    1959.2619   -2564.2101   -75.478386    25641.165   -19335.638    8378.7081   0.92608069    30.258566    38.327517     44.37923 
   51000    51530.822    198.98994    240.77363    2428.9542    5747.3171    744.64654    723.80293     439.7059    70.021148    1978.1765   -2528.8079   -75.386628     25634.68   -19336.732    8357.2185   0.92495486    30.270837    38.343061    44.397228 
   51200    51473.316    202.37098   -352.67685    2470.2246    5738.9816    747.98855    715.87716    450.09431    70.914318    1984.8743   -2529.9437    -75.47085    25619.392   -19335.341    7944.4569   0.92598822    30.259573    38.328792    44.380707 
   51400    51616.569    201.12816    -797.4844    2455.0543    5718.4039    751.59961    689.54101    450.98814    68.368662    1960.4974   -2541.0234   -75.261393    25639.519   -19340.589     7573.132   0.92341829    30.287618    38.364317     44.42184 
   51600    51458.747    198.14483   -560.83041    2418.6385    5713.9217     751.0558    706.87095    453.49038    71.974045    1983.3912    -2550.612   -75.492217    25620.995   -19339.852    7711.6721   0.92625038    30.256718    38.325176    44.376519 
   51800    51178.996    205.32712    204.71804    2506.3084    5726.1436    719.95561    703.93024    456.82926    72.110997    1952.8261   -2507.0597   -75.904868    25617.805   -19337.428    8385.2522    0.9313134    30.201789    38.255599    44.295957 
   52000    51563.171    195.30482    436.73291    2383.9721    5745.3502    777.17718    688.69882    449.37692    74.055038     1989.308    -2523.975   -75.339333    25614.945   -19334.927    8457.7437   0.92437457     30.27717    38.351082    44.406517 
   52200    51862.243    198.21594    486.73668    2419.5064     5783.097    744.33332    703.65519    452.32923     74.91699    1975.2347    -2518.309   -74.904876    25657.625   -19331.454    8570.7504   0.91904402    30.335595    38.425086    44.492205 
   52400    51806.992    202.55136    -1193.161    2472.4264    5774.7262    762.61994    703.28019    456.92497    67.452952     1990.278   -2540.4955   -74.984761    25658.146   -19333.203    7345.6576   0.92002416    30.324818    38.411436      44.4764 
   52600    51568.256    197.14399   -971.94658    2406.4218    5735.3252    764.35483    680.45438    444.91025    68.272371    1957.9918   -2534.2922   -75.331903    25644.433   -19332.807     7410.775   0.92428342    30.278166    38.352343    44.407976 
   52800    51457.009    201.67942    289.21336    2461.7831    5711.4501    745.79999    694.80842    466.02741    69.348461    1975.9843   -2575.1632   -75.494767    25648.009    -19337.38    8390.2727   0.92628167    30.256377    38.324744     44.37602 
   53000    51041.612    198.24736    1440.6788      2419.89     5725.893     723.0503    722.90195    467.21164    67.977059     1981.141   -2559.6547   -76.109173        25641   -19336.593    9218.2092   0.93382011     30.17474    38.221338    44.256286 
   53200    51078.202    202.48907    374.01313     2471.666    5640.6034    720.83189    702.79301     445.6636    67.407868    1936.6964   -2570.6921   -76.054652    25611.618   -19337.019    8390.8804   0.93315117    30.181949    38.230469    44.266858 
   53400    51343.303    198.14688   -1088.2096    2418.6634    5699.3681    740.57299    697.06323    457.62371    74.182741    1969.4427   -2565.7364    -75.66196    25628.922    -19333.26    7303.1918   0.92833304    30.234074    38.296494    44.343309 
   53600    51333.642    203.36557   -1028.9083     2482.365    5717.9193    750.42327    708.62788    446.79135    65.130368    1970.9729     -2535.98   -75.676199    25618.786    -19335.86    7429.9936   0.92850775    30.232178    38.294092    44.340528 
   53800    51526.407    195.93225   -226.92859    2391.6307    5709.4451     737.2088    706.08602    438.35572    74.591859    1956.2424   -2528.6135   -75.393087    25616.565   -19334.749    7930.5481    0.9250341    30.269973    38.341966     44.39596 
   54000    51568.053    201.30065   -348.89683    2457.1597    5687.9071    743.01217    714.99688    446.75122    68.026303    1972.7866   -2553.1376   -75.332201    25610.045   -19341.787     7882.673   0.92428707    30.278126    38.352293    44.407918 
   54200    51327.508    198.16379    378.06974    2418.8699    5746.2302    730.75169    704.64786    472.47779      86.3207     1994.198   -2511.0194   -75.685243    25598.472   -19335.421    8448.1076   0.92861871    30.230974    38.292567    44.338762 
   54400    51396.668    201.75356    1000.1814    2462.6881    5779.5475    753.47073    720.58177     466.6825    74.728395    2015.4634   -2535.1213     -75.5834    25631.671   -19332.465    8991.9393   0.92736915    30.244546    38.309758    44.358667 
   54600    51801.844    198.57815     573.7003    2423.9277    5706.4568    737.67176     714.0011    449.93332    69.638869    1971.2451   -2547.6475   -74.992212    25620.816   -19337.957    8563.8018   0.92011558    30.323814    38.410164    44.474927 
   54800    51700.259    199.05091    135.82002    2429.6984    5745.3332    749.44041    726.98893    448.44069    77.351629    2002.2217   -2515.2771   -75.139563    25594.222   -19335.833    8277.4392    0.9219235    30.303979     38.38504    44.445835 
   55000     51490.67    200.80381   -1157.9671    2451.0951     5721.231    748.70481    720.03477    465.33891    74.221865    2008.3003   -2553.7457   -75.445414    25601.991   -19335.314    7302.7638   0.92567613    30.262973    38.333099    44.385694 
   55200    51236.242    202.94104   -344.16441     2477.183    5676.1764    750.95958    691.75243    439.39035    76.277632      1958.38   -2553.7142   -75.820059    25606.836   -19335.325    7896.1901   0.93027283    30.213045    38.269857    44.312466 
   55400    51031.713    199.25179    766.23711    2432.1505    5671.0835    733.73188    685.90419    461.28196    68.714022    1949.6321   -2569.9896   -76.123937      25629.6   -19338.159    8673.5023   0.93400126    30.172789    38.218866    44.253424 
   55600    50990.216    200.26496    990.09948    2444.5176    5626.5685     720.0615    687.22559    435.85043    72.776974    1915.9145   -2598.6452   -76.185889    25646.861   -19337.561    8807.3637   0.93476138    30.164609    38.208504    44.241426 
   55800    51024.997    199.96396    669.38908    2440.8435    5719.5977    758.10077    705.75266    448.26975    66.603184    1978.7264   -2541.0742   -76.133956    25619.082   -19337.136    8658.5652   0.93412419    30.171466     38.21719    44.251483 
   56000    51442.861    196.08704    -408.5696    2393.5202    5753.2332    737.04406    721.90805    478.58923    73.956479    2011.4978   -2533.4962    -75.51553    25612.844   -19337.612    7840.2276   0.92653642    30.253604    38.321232    44.371952 
   56200    51640.846    201.47519   -785.51357    2459.2902    5761.5022    778.41705     713.8916    465.07181    74.727992    2032.1085   -2536.2991   -75.226011    25603.276   -19337.583    7629.1996   0.92298418    30.292366     38.37033    44.428803 
   56400    51340.314    196.40189   -606.39537    2397.3634    5726.8189    771.06172    699.35355    459.12256    70.580004    2000.1178    -2559.362   -75.666364    25622.154   -19336.091    7670.1463   0.92838707    30.233488    38.295751    44.342449 
   56600    50979.333    201.75971    12.228208    2462.7632    5714.8032    744.31478    697.12224     455.6561    69.549664    1966.6428   -2543.3382   -76.202152    25628.137   -19336.638    8186.6578   0.93496091    30.162463    38.205786    44.238278 
   56800    51126.639    199.56821   -63.667166    2436.0128    5760.6227    744.02806    743.10685    462.27433    72.915545    2022.3248      -2556.1   -75.982599    25630.373   -19335.975    8149.1634   0.93226712    30.191486    38.242549    44.280846 
   57000    51283.666    200.79296    160.64137    2450.9626    5686.4941    745.28071    717.84908     431.8987    67.640284    1962.6688   -2566.3893   -75.749945     25626.46   -19336.246    8257.6035   0.92941257    30.222364    38.281661    44.326134 
   57200    51168.351    197.32997    323.35935     2408.692    5721.4643    748.71361    710.22151    471.07224    77.304242    2007.3116   -2556.9464   -75.920659    25609.908   -19338.809    8371.4593   0.93150714    30.199695    38.252947    44.292886 
   57400    51089.223    203.89801   -22.763635    2488.8642    5714.0548    767.27376    706.35676    459.94006    68.426597    2001.9972    -2556.011   -76.038245    25606.679    -19338.61    8185.9581   0.93294986     30.18412    38.233218    44.270042 
[...]
 1986600    50815.798    202.87068   -2.6538597    2476.3242    5718.9427    750.22393    707.38693    470.24372    79.443636    2007.2982   -2578.3636   -76.447385     25626.38   -19336.372    8193.3001    0.9379698    30.130176    38.164889    44.190924 
 1986800    50942.516    201.93092   -1419.1673     2464.853      5767.29    771.33215    718.05875    469.65015    74.876474    2033.9175   -2565.0588   -76.257225    25630.977   -19332.546    7177.7807   0.93563663      30.1552    38.196586    44.227626 
 1987000    50977.263    200.83189    -870.9428    2451.4378    5681.4764    753.27803    719.90848    456.10348    73.032491    2002.3225   -2591.8311   -76.205246     25608.56   -19337.575    7485.4108   0.93499888    30.162054    38.205269     44.23768 
 1987200    50828.897    200.76874    154.97842     2450.667    5675.5068    720.76569    722.64116    467.49256    72.256588     1983.156    -2587.221   -76.427684    25617.782    -19338.21    8241.0573   0.93772808    30.132764    38.168168    44.194721 
 1987400    50950.603    203.71169    675.75593    2486.5899    5731.0352    747.29561    735.77694    464.16297    75.806947    2023.0425   -2570.2358   -76.245121    25614.811   -19336.582    8719.7538   0.93548813    30.156795    38.198607    44.229966 
 1987600      51222.3    197.13582    428.17219    2406.3221    5743.8138    737.86157    705.74351    467.36615    75.442819    1986.4141   -2572.1832   -75.840696    25664.423    -19334.84    8469.9911   0.93052605    30.210305    38.266386    44.308447 
 1987800    50958.464    197.70492     479.1651    2413.2687    5727.2479    748.50699    723.65956    463.52397    78.158574    2013.8491   -2548.6419   -76.233359    25598.177   -19336.136     8496.621   0.93534382    30.158346    38.200572    44.232241 
 1988000    50744.094    195.41823    158.66201    2385.3565    5700.7082    752.18842     694.4109    458.31307    70.735098    1975.6475   -2573.0421   -76.555409    25631.521   -19333.418    8203.4826    0.9392952    30.115997     38.14693    44.170129 
 1988200    50785.806    200.13761    351.25681    2442.9631    5733.9304    746.67309    735.72886    473.14726    80.541535    2036.0907   -2577.3993   -76.492533    25611.834   -19336.595     8437.055   0.93852374    30.124247    38.157379    44.182228 
 1988400    51205.377    198.63993   -599.29499    2424.6818    5663.8173    702.44955     716.6017    470.57717    74.771635       1964.4    -2593.479   -75.865761    25628.781   -19335.885    7640.9589   0.93083358    30.206977    38.262171    44.303567 
 1988600    51183.294    198.29261   -588.61871    2420.4423    5692.1077    752.95352     700.7304    473.59578    74.105953    2001.3857   -2570.4056   -75.898494    25598.765   -19337.637    7673.1722   0.93123519    30.202634     38.25667    44.297197 
 1988800    50821.879     201.4081    386.97846    2458.4712    5702.3843    740.82544     705.4872    474.41452     76.18359    1996.9108    -2571.206   -76.438238    25616.729   -19340.049    8447.6781   0.93785757    30.131377    38.166411    44.192687 
 1989000    50926.456    192.44652    232.44284    2349.0825    5717.6238    773.94372    707.06821    445.97819    75.913469    2002.9036   -2585.0112   -76.281272    25636.068   -19336.336    8239.3439   0.93593168    30.152031    38.192572    44.222978 
 1989200     51369.64    200.78022    73.645308    2450.8071    5721.9324    739.94507    708.83048    472.44321    74.123792    1995.3425   -2563.2059   -75.623167    25625.748   -19335.952    8227.9126   0.92785708    30.239243    38.303042     44.35089 
 1989400    51401.958      201.801   -541.72562    2463.2672    5693.1351    744.98353    712.03923    452.94852    75.237211    1985.2085   -2561.8008    -75.57562    25607.622   -19337.895    7750.3005    0.9272737    30.245583    38.311072    44.360189 
 1989600    51131.789    198.11015    -165.7371    2418.2151    5677.8472    733.16113    705.23992     449.0139    73.474392    1960.8893   -2568.9645   -75.974946    25623.029   -19337.107    7972.4714   0.93217321      30.1925    38.243833    44.282333 
 1989800     50937.06    200.45052    326.55759    2446.7827    5734.9057    743.61697    734.62426    465.65784    74.664694    2018.5638   -2564.3963   -76.265393    25617.951   -19337.213    8424.2764   0.93573686    30.154123    38.195223    44.226047 
 1990000    51084.048    198.31806    829.60268     2420.753    5693.3238    722.02234    724.69137    443.70035    74.753516    1965.1676   -2550.5965   -76.045949    25617.136   -19338.384    8732.1378   0.93304439      30.1831    38.231927    44.268547 
 1990200    51145.402    198.93312   -890.16479    2428.2606    5673.9928    727.68019    733.22047    449.99216    69.338779    1980.2316   -2576.6582   -75.954723    25608.676   -19338.256    7438.2766    0.9319251    30.195179    38.247227    44.286263 
 1990400    50874.709    198.39423   -1027.8345    2421.6828    5708.1384    756.56829    708.29229    457.56721        78.07    2000.4978   -2565.4593   -76.358862    25609.766   -19336.666    7367.2137   0.93688366    30.141814    38.179632    44.207995 
 1990600    50961.682    202.83234    164.30702    2475.8562    5672.2676     743.7854    681.32923    451.56654    75.112085    1951.7933   -2564.2493   -76.228546    25620.681   -19335.958    8270.2407   0.93528475    30.158981    38.201376    44.233172 
 1990800    51459.861    197.53947    183.76432    2411.2492    5745.5034    746.45263    728.41101    467.96135    76.592463    2019.4175   -2556.6833   -75.490583    25616.988   -19334.219    8294.6657   0.92623033    30.256936    38.325452     44.37684 
 1991000    51587.385    203.09455    497.03446    2479.0568    5769.9296    738.12373    733.32662    451.08568    73.513861    1996.0499   -2540.9978    -75.30397     25648.26   -19333.383    8622.9298   0.92394069    30.281909    38.357085    44.413467 
 1991200    51182.719    200.72544    654.35511    2450.1384     5693.848    749.31442    705.21883    453.93119    75.546451    1984.0109   -2574.2858   -75.899346    25618.362   -19334.239    8632.4282   0.93124565    30.202521    38.256527    44.297031 
 1991400    50573.953    199.17804    1500.1588    2431.2502    5682.1581    734.05918    711.23277    455.33679    69.548674    1970.1774   -2560.9135   -76.812957    25608.049   -19335.155    9219.8793   0.94245517    30.082301    38.104247    44.120708 
 1991600    51052.236    199.14751   -175.56086    2430.8776    5663.8092     741.5065    699.90065    441.67245    75.789121    1958.8687   -2584.5707   -76.093334    25627.999   -19338.488    7963.9739   0.93362578    30.176834    38.223989    44.259356 
 1991800    51446.102      198.049   -880.50813    2417.4688    5675.1924    752.71776    713.56373    442.05353    72.134091    1980.4691   -2557.4828   -75.510772    25590.626    -19338.42    7432.0259   0.92647805    30.254239    38.322036    44.372884 
 1992000    51484.784    198.19852    145.65209    2419.2939    5783.7826    765.00987    727.99091    456.05479    70.159674    2019.2152   -2525.8497   -75.454039    25623.788   -19333.371    8312.4397   0.92578196     30.26182    38.331639    44.384003 
 1992200    51702.327    201.86888    311.66849    2464.0958    5740.5108    748.23679    724.75026    452.24471    69.232439    1994.4642   -2538.0127   -75.136558    25620.856   -19336.797    8439.6125   0.92188664    30.304383    38.385551    44.446428 
 1992400    51581.453    198.74288    183.61539    2425.9385    5694.8571    753.73743    706.67558    430.20764    71.351617    1961.9723   -2548.7625    -75.31263    25616.502   -19334.855    8258.9226   0.92404695    30.280748    38.355614    44.411764 
 1992600    51299.913    200.53064   -523.15733    2447.7607    5721.6779    739.92305    698.58996    468.69392     66.26058    1973.4675   -2534.0871   -75.725954    25620.934   -19338.637     7778.035   0.92911822    30.225555    38.285703    44.330815 
 1992800    51548.969      201.672   -1294.2597    2461.6925    5756.2026     767.2564    737.13061    454.52713    73.671498    2032.5856   -2559.1319   -75.360089    25617.537   -19334.789    7244.8851   0.92462924     30.27439    38.347561    44.402439 
 1993000    51540.754    195.78492   -293.87356    2389.8324    5726.3795    741.45361    683.86755    479.22064    71.306453    1975.8482   -2544.1059   -75.372101     25631.44   -19336.803    7895.3162   0.92477662    30.272782    38.345524     44.40008 
 1993200    51256.493    202.34004    1028.5109    2469.8469    5722.6283    753.13329    702.66868    468.62676    73.275925    1997.7047   -2535.7582   -75.790103    25600.493   -19339.811    8961.3112   0.92990529    30.217025    38.274899    44.318304 
 1993400     51317.22    200.58403    463.95993    2448.4124    5757.5757    744.50437    730.51264    470.55065    77.074662    2022.6423   -2543.7438   -75.700416    25618.991   -19340.314    8553.2198   0.92880487    30.228954    38.290008    44.335799 
 1993600    51253.224      197.646   -364.89373    2412.5496    5707.1793    752.44268     710.7135    440.47434    72.786995    1976.4175   -2573.6434   -75.794937    25639.328   -19334.923    7846.9797    0.9299646    30.216383    38.274085    44.317362 
 1993800     51005.62    203.69744    100.83651    2486.4159     5710.603    779.83531    717.11941    424.49336    67.484828    1988.9329   -2563.0712    -76.16288    25622.567   -19337.826    8272.0277   0.93447907    30.167646    38.212352    44.245881 
 1994000    51213.847    199.18941   -730.10407     2431.389    5642.7642     733.2168    713.64141    439.60871    71.113597    1957.5805   -2559.5928   -75.853214     25583.44   -19338.663    7528.8375   0.93067963    30.208643    38.264281    44.306009 
 1994200    51321.765    199.88741   -1276.2302    2439.9091    5700.5613    759.87018    705.93243    469.06335    74.362727    2009.2287   -2574.7883   -75.693712     25603.07   -19336.949    7185.2436   0.92872262    30.229846    38.291139    44.337108 
 1994400    51152.827    204.64853    72.410169    2498.0253    5660.2042    741.46436    671.55144    472.32719    72.215369    1957.5584   -2564.2257   -75.943699    25602.913   -19336.041    8212.2483   0.93178983     30.19664    38.249078    44.288406 
 1994600    51177.958    200.95628    1300.1686    2452.9562    5681.4464    743.76779    726.77417    434.78435    71.419526    1976.7458   -2565.0037   -75.906407    25603.973   -19334.269    9104.8198   0.93133228    30.201585     38.25534    44.295657 
 1994800    51377.199    199.61577    1483.2002    2436.5933    5721.1284    748.19881    681.93391    448.21926    69.556443    1947.9084   -2524.5552   -75.612041    25635.247   -19337.472    9269.0596   0.92772056    30.240727     38.30492    44.353066 
 1995000    51721.489    205.73089    -750.7447    2511.2371    5756.1607    768.88181    737.30178    445.66169    69.756935    2021.6022   -2549.2444   -75.108721    25619.422   -19335.619    7701.1074   0.92154508    30.308126    38.390293    44.451918 
 1995200    51457.594    202.04877   -1260.7594    2466.2916    5742.5822    761.77063     698.6946    451.44589    77.389929    1989.3011   -2534.3349   -75.493908    25625.202   -19337.586    7262.7291   0.92627114    30.256492     38.32489    44.376188 
 1995400    51181.003    200.70965   -566.10889    2449.9457    5713.3612    759.36792    717.31418    462.72692    64.353725    2003.7627   -2540.9958   -75.901891    25589.504    -19338.91    7740.7505   0.93127687    30.202184    38.256099    44.296536 
 1995600    51193.161    198.61721    277.58342    2424.4046    5660.0301    739.28871    714.18967    421.04479    71.283604    1945.8068   -2553.6513   -75.883865    25605.585    -19337.71    8291.6783    0.9310557    30.204575    38.259128    44.300043 
 1995800    51101.005    197.19172    26.268727    2407.0044     5669.675    724.02141    728.33374    455.32186    68.944772    1976.6218    -2578.506   -76.020714    25609.278   -19337.719    8096.2564   0.93273477     30.18644    38.236157    44.273445 
 1996000    50955.452    197.39184   -64.653048    2409.4472    5736.1952    746.64898    717.31307    469.07452    79.137667    2012.1742   -2552.5625   -76.237865    25612.016   -19335.432    8097.5966    0.9353991    30.157752    38.199819     44.23137 
 1996200    51022.216    197.94392   -341.21261    2416.1861    5771.8563    775.88764    726.12132    479.50216    74.038728    2055.5498   -2559.1966   -76.138106    25611.731   -19336.228    7934.1438    0.9341751    30.170918    38.216496    44.250679 
 1996400    51146.958    199.41739    367.20668    2434.1718    5736.4044    768.51837    725.23324    441.06324    76.912404    2011.7273   -2562.4461   -75.952413    25624.212   -19337.088    8444.4852   0.93189675    30.195485    38.247615    44.286712 
 1996600    51100.731    198.08568    154.82439    2417.9165    5706.7639    760.51389    743.51958     444.3727    68.343933    2016.7501   -2577.8119   -76.021122     25605.94   -19338.114    8240.0635   0.93273978    30.186386    38.236088    44.273366 
 1996800    50929.706    202.28208   -331.61115    2469.1394    5694.0613    779.01538    732.65454    446.09879    75.388208    2033.1569   -2598.2195   -76.276405    25597.973   -19338.849    7916.8941   0.93587196    30.152672    38.193384    44.223919 
 1997000      50979.2    200.25331   -205.34145    2444.3755    5639.7643    725.03099    719.01055    446.70995    69.739712    1960.4912   -2586.2209   -76.202351    25601.337   -19335.843    7931.4727   0.93496336    30.162436    38.205753     44.23824 
 1997200     50987.02     202.8821    205.33567    2476.4635    5668.8615    766.82996     681.5869    437.20304    75.737212    1961.3571   -2580.9316   -76.190663    25623.439   -19335.003    8298.0113   0.93481996    30.163979    38.207706    44.240502 
 1997400    51183.684    199.86915    860.53901    2439.6863    5734.3001    747.42904    752.20071     454.9921    72.870658    2027.4925   -2565.0493   -75.897915    25608.941   -19337.084    8816.3456   0.93122809    30.202711    38.256767    44.297309 
 1997600    51419.505    200.70284   -127.74168    2449.8626    5659.0139    746.06932    713.80991    439.30713    67.540785    1966.7271   -2563.8537   -75.549831    25594.374   -19338.234    8013.0829   0.92695728    30.249025    38.315431    44.365236 
 1997800    51189.439    196.90813   -218.72287    2403.5428    5624.2711    735.01185    697.50282    432.66819      74.4191     1939.602   -2563.0413   -75.889383    25582.943   -19335.233    7864.5274    0.9311234    30.203843    38.258201    44.298969 
 1998000    50961.849    201.02267   -404.69183    2453.7665    5706.2291    766.30245    728.25337    445.47902    67.896606    2007.9315   -2563.1597   -76.228295    25599.904   -19338.446    7859.2181   0.93528168    30.159014    38.201418     44.23322 
 1998200    51063.611    197.77341   -253.85092    2414.1047    5748.6984    773.13869    735.15975    467.84234    72.263014    2048.4038   -2556.5309   -76.076384    25599.803   -19342.978    7973.7576   0.93341781    30.179075    38.226828    44.262643 
 1998400    51343.464    194.15549    16.183364    2369.9429    5713.4304    751.74611     713.5584    458.27617    78.011516    2001.5922   -2581.0813   -75.661722    25631.132   -19338.212    8095.4913   0.92833013    30.234106    38.296534    44.343356 
 1998600    51136.303    201.63349    1301.0281    2461.2225    5736.3623    748.13865    709.79881    476.90804    75.486396    2010.3319    -2567.799    -75.96824    25626.434   -19332.605    9167.8532   0.93209093    30.193388    38.244959    44.283636 
 1998800    50855.764    199.46633    466.75297    2434.7693     5703.331    762.81865    715.03718    452.82135    77.377646    2008.0548   -2572.0549   -76.387308    25596.698   -19329.367    8484.2812   0.93723268    30.138072    38.174892    44.202506 
 1999000    51003.514    194.40769   -396.24855    2373.0213    5713.4324    777.65897    706.84013    466.96444    72.484327    2023.9479   -2566.5328   -76.166024     25597.22   -19341.202    7791.7106   0.93451764    30.167231    38.211826    44.245272 
 1999200    51171.655    201.68705   -711.35159    2461.8762    5762.7938    789.21743    727.51431    466.91836    73.397203    2057.0473   -2548.8678   -75.915756    25597.757   -19343.142    7693.7983   0.93144699    30.200345     38.25377    44.293839 
 1999400    51284.634    199.24704   -912.66285    2432.0925    5693.1388    726.15853    712.31097     466.5294    76.202991    1981.2019   -2550.7871   -75.748515    25602.512   -19339.788    7442.6199   0.92939503    30.222554    38.281902    44.326413 
 1999600     51084.69    200.48178    -502.3026    2447.1642    5667.3758    745.55984    709.09276    455.17943    71.766083    1981.5981   -2571.3927   -76.044993    25592.965   -19335.794    7740.3156   0.93303265    30.183227    38.232087    44.268733 
 1999800    50927.848    204.60875    616.88791    2497.5397    5721.7545    746.78126    746.99229    454.66471    73.636319    2022.0746   -2565.6123   -76.279188    25607.744   -19342.452    8677.4756   0.93590611    30.152305     38.19292    44.223381 
 2000000    51030.281    202.01717    835.58539    2465.9059    5658.0676     729.9198    727.37133    453.59109    68.086812     1978.969   -2585.2236   -76.126072    25604.384   -19340.061    8745.8365   0.93402746    30.172507    38.218509    44.253011 
 2000100    51073.144    199.17641    684.64691    2431.2303    5675.3092    731.23276     697.7559    449.64729    74.796342    1953.4323   -2551.4168   -76.062184    25613.709   -19340.415    8616.4983   0.93324358    30.180953    38.229207    44.265397 
Loop time of 7986.43 on 24 procs for 2000000 steps with 4096 atoms

Performance: 21.637 ns/day, 1.109 hours/ns, 250.425 timesteps/s
99.9% CPU use with 24 MPI tasks x no OpenMP threads

MPI task timing breakdown:
Section |  min time  |  avg time  |  max time  |%varavg| %total
---------------------------------------------------------------
Pair    | 3303.8     | 3641.8     | 3924.9     | 347.6 | 45.60
Bond    | 109.81     | 111.17     | 113.77     |   7.2 |  1.39
Kspace  | 2037.1     | 2321.8     | 2661.2     | 436.6 | 29.07
Neigh   | 165.63     | 165.8      | 166        |   0.8 |  2.08
Comm    | 621.97     | 698.47     | 751.13     | 193.9 |  8.75
Output  | 1.2215     | 1.2457     | 1.767      |   9.7 |  0.02
Modify  | 482.61     | 739.31     | 1087.4     | 878.4 |  9.26
Other   |            | 306.8      |            |       |  3.84

Nlocal:        170.667 ave         184 max         155 min
Histogram: 2 1 2 0 4 6 4 1 3 1
Nghost:        5299.67 ave        5341 max        5258 min
Histogram: 2 1 1 4 4 5 1 1 4 1
Neighs:        78570.9 ave       89340 max       70285 min
Histogram: 5 2 4 2 2 0 2 3 2 2

Total # of neighbors = 1885701
Ave neighs/atom = 460.37622
Ave special neighs/atom = 6.0000000
Neighbor list builds = 47770
Dangerous builds = 0

write_data      data.${NAME}
write_data      data.ar.200
System init for write_data ...
PPPM initialization ...
  using 12-bit tables for long-range coulomb (../kspace.cpp:340)
  G vector (1/distance) = 0.26070699
  grid = 32 32 32
  stencil order = 5
  estimated absolute RMS force accuracy = 0.00041389271
  estimated relative force accuracy = 1.2464256e-06
  using double precision KISS FFT
  3d grid and FFT values/proc = 6210 2048

write_restart   restart.${NAME}
write_restart   restart.ar.200
System init for write_restart ...
PPPM initialization ...
  using 12-bit tables for long-range coulomb (../kspace.cpp:340)
  G vector (1/distance) = 0.26070699
  grid = 32 32 32
  stencil order = 5
  estimated absolute RMS force accuracy = 0.00041389271
  estimated relative force accuracy = 1.2464256e-06
  using double precision KISS FFT
  3d grid and FFT values/proc = 6210 2048

Total wall time: 2:13:09
