LAMMPS data file via write_data, version 29 Sep 2021, timestep = 2000100

4096 atoms
6 atom types
3584 bonds
6 bond types
4608 angles
8 angle types
4096 dihedrals
6 dihedral types
1536 impropers
3 improper types

-15.090476333609509 15.090476333609509 xlo xhi
-19.114603355909214 19.114603355909214 ylo yhi
-22.13269862262797 22.13269862262797 zlo zhi

Masses

1 12.01
2 12.01
3 12.01
4 16
5 1.008
6 1.008

Pair Coeffs # lj/cut/coul/long

1 0.086 3.39967
2 0.086 3.39967
3 0.086 3.39967
4 0.21 2.95992
5 0.015 2.51055
6 0.015 2.59964

Bond Coeffs # harmonic

1 343.1 1.088
2 547.3 1.346
3 342.5 1.088
4 354.5 1.482
5 310.7 1.112
6 637.7 1.218

Angle Coeffs # harmonic

1 49.6 119.94
2 65.5 120.42
3 38.1 116.9
4 49.5 120.45
5 46.7 114.89
6 68.8 123.2
7 46.5 116.46
8 54.2 120.7

Dihedral Coeffs # charmm

1 2.175 2 180 0
2 2.175 2 180 0
3 6.65 2 180 0
4 6.65 2 180 0
5 2.175 2 180 0
6 2.175 2 180 0

Improper Coeffs # cvff

1 10.5 -1 2
2 1.1 -1 2
3 1.1 -1 2

Atoms # full

2288 286 6 0.1559 -10.933483810952257 -12.637062616747052 -14.569065282477702 1 0 1
2285 286 5 -0.008385 -10.328136312865544 -15.536787385813225 -13.728056121017024 1 0 1
2283 286 3 0.512161 -10.452237754986024 -14.779792121058868 -14.551350323630299 1 0 1
2284 286 4 -0.488411 -9.829885432276514 -14.779846159849129 -15.56338995397029 1 0 1
2282 286 2 -0.169515 -11.092401219048 -13.565660438821329 -14.048114870439667 1 0 1
2281 286 1 -0.38353 -11.820932850032936 -13.488083095323475 -12.904286208897 1 0 1
2287 286 6 0.19089 -12.303333131655013 -12.576400292808732 -12.465057424181909 1 0 1
487 61 6 0.19089 -13.245516790616286 -10.48356344701878 -20.42079311596353 -1 0 0
2286 286 6 0.19089 -12.006022800960727 -14.408003974786585 -12.364412478052069 1 0 1
2122 266 2 -0.169515 -8.876488713246404 -12.627149783569124 -18.151202642306625 -1 1 1
1096 137 6 0.1559 -14.724266921610253 -7.405447535949689 -12.329786433487675 -1 0 1
3674 460 2 -0.169515 -13.204443889667933 -10.88323893145649 -16.255456074696053 2 0 0
2128 266 6 0.1559 -8.367488765983133 -13.565919039209213 -17.906745015525853 -1 1 1
3811 477 3 0.512161 -9.946640133357253 -18.417430752459 -12.945694034676952 0 0 1
3812 477 4 -0.488411 -10.633148949210781 -18.392405144125668 -13.950122007355448 0 0 1
2121 266 1 -0.38353 -10.254640516277963 -12.558961633072169 -18.05130253220036 -1 1 1
2127 266 6 0.19089 -10.824890472682206 -13.426723426369428 -17.785352149570116 -1 1 1
2126 266 6 0.19089 -10.838520516516212 -11.631957797246397 -18.290988817806497 -1 1 1
1179 148 3 0.512161 -14.29201227354448 -16.280095579040896 -13.80646093343819 0 1 1
1082 136 2 -0.169515 -10.737406560397934 -6.866668961420078 -13.52184338118407 1 0 0
917 115 5 -0.008385 -7.138853980090041 -18.93748811495087 -20.742315465598494 0 1 0
1748 219 4 -0.488411 -7.850589056609137 -7.885353944188191 -17.035155472316244 -1 1 1
1180 148 4 -0.488411 -14.854982188651961 -16.07157285696183 -12.726172682914115 0 1 1
3679 460 6 0.19089 -11.557231013592917 -9.782717631892028 -15.54884317005873 2 0 0
1181 148 5 -0.008385 -13.916075575464571 -17.266454757204404 -14.072086540224742 0 1 1
3673 460 1 -0.38353 -12.444801839160178 -9.764809162634245 -16.18021083753764 2 0 0
300 38 4 -0.488411 -12.630175121134812 -17.125919462641598 -20.69156262930329 1 1 1
3810 477 2 -0.169515 -10.156876464972296 -17.543717847838515 -11.774264773365756 0 0 1
3678 460 6 0.19089 -12.607838586292845 -8.847801243756399 -16.702652671251858 2 0 0
1195 150 3 0.512161 -14.886360498119025 -13.92097669278026 -21.851980280508158 1 1 1
299 38 3 0.512161 -12.128068278638375 -16.797920155989402 -19.644397953905973 1 1 1
2326 291 6 0.19089 -8.006398826735134 -16.17653045921083 -18.549813573891825 0 1 0
302 38 6 0.19089 -10.571664821004093 -16.410178802082136 -17.358583612319222 1 1 1
2321 291 1 -0.38353 -8.336421444873501 -16.18885857656111 -19.599617102551413 0 1 0
3740 468 4 -0.488411 -10.560547497322961 -9.381123819843532 -18.966776250881786 0 0 1
3680 460 6 0.1559 -12.972343939058113 -11.809230774541161 -15.691857035825223 2 0 0
3739 468 3 0.512161 -10.269354878240403 -8.267183269001357 -18.55074014039604 0 0 1
2164 271 4 -0.488411 -9.459561359562102 -10.382743467950586 -14.180527394238766 -1 0 1
301 38 5 -0.008385 -12.080717174145589 -15.730978984233793 -19.242891562767728 1 1 1
2981 373 5 -0.008385 -14.43014470824414 -18.50640500855095 -19.443179938030717 0 1 0
1052 132 4 -0.488411 -14.247591893819143 -6.812559366835405 -17.65952353713906 0 0 0
1178 148 2 -0.169515 -14.131701969634218 -15.299276805068743 -14.910432478471446 0 1 1
2327 291 6 0.19089 -9.099014513683997 -16.86744739891486 -19.83063997331758 0 1 0
482 61 2 -0.169515 -14.638881700318587 -8.927569448091836 -20.59672883145257 -1 0 0
2123 266 3 0.512161 -8.027854056565182 -11.484982863707131 -18.607555407031423 -1 1 1
2125 266 5 -0.008385 -8.606142221498965 -10.547090025877043 -18.831931019246223 -1 1 1
3741 468 5 -0.008385 -10.392970389931794 -8.06126254734438 -17.473581155472626 0 0 1
3744 468 6 0.1559 -10.446636835478198 -7.144998048971548 -20.439518171102964 0 0 1
297 38 1 -0.38353 -10.673201005815226 -17.469140695991882 -17.704384583235147 1 1 1
1184 148 6 0.1559 -14.494632013710962 -14.280547209831994 -14.719518249113769 0 1 1
1083 136 3 0.512161 -11.10772603654252 -7.689947924082073 -12.415228818045872 1 0 0
3738 468 2 -0.169515 -10.168740428016356 -7.063444183834074 -19.415545652968138 0 0 1
1177 148 1 -0.38353 -13.505808843278915 -15.67828969435025 -16.052000595393533 0 1 1
2163 271 3 0.512161 -8.253818857590446 -10.226379903122222 -14.110321831913408 -1 0 1
488 61 6 0.1559 -13.86717374150221 -8.15260626449315 -20.56898658361496 -1 0 0
1086 136 6 0.19089 -12.360618983263606 -7.363432011249323 -14.895975333924742 1 0 0
481 61 1 -0.38353 -14.293924082520132 -10.209394821768667 -20.460177911929687 -1 0 0
1095 137 6 0.19089 -13.954072398451114 -9.662706177956377 -11.558107017147371 -1 0 1
2165 271 5 -0.008385 -7.82844932354329 -9.21342224464571 -13.810902800063324 -1 0 1
2998 375 6 0.19089 -9.267128482570236 -11.98075944406403 -21.764889327363356 0 0 0
3677 460 5 -0.008385 -14.76350210225192 -10.062412826108416 -17.60095232258272 2 0 0
1182 148 6 0.19089 -13.13310427578243 -16.706902920892997 -16.271200796631526 0 1 1
486 61 6 0.19089 -15.081738486601948 -11.030269790318442 -20.515001712099565 -1 0 0
3675 460 3 0.512161 -14.438562019456187 -11.036004997784417 -17.084368253043316 2 0 0
1200 150 6 0.1559 -12.858881066443137 -14.633691141643261 -22.065056491800288 1 1 1
1183 148 6 0.19089 -13.392005512397485 -14.915528233723226 -16.88961178710576 0 1 1
3816 477 6 0.1559 -11.06069657941955 -16.957521002076902 -11.65110127310224 0 0 1
1970 247 2 -0.169515 -8.288182582531327 -14.033905822774162 -11.59174688760096 0 0 0
298 38 2 -0.169515 -11.373853108849923 -17.780414895015905 -18.85038919785094 1 1 1
303 38 6 0.19089 -10.047380504710947 -18.202234491902864 -17.08346745086491 1 1 1
1969 247 1 -0.38353 -7.663069130930464 -14.795301364517774 -12.541525574035864 0 0 0
2322 291 2 -0.169515 -7.74607456391736 -15.420656384066069 -20.537568244210295 0 1 0
1089 137 1 -0.38353 -14.40767478578475 -9.513804310165074 -12.525245010061607 -1 0 1
1085 136 5 -0.008385 -11.966643148554564 -8.384770272994304 -12.597359571133376 1 0 0
2168 271 6 0.1559 -7.843121595840004 -12.130468069436809 -15.087190789205989 -1 0 1
304 38 6 0.1559 -11.238137545746913 -18.729303677995983 -19.287886150075888 1 1 1
1975 247 6 0.19089 -7.68224899864215 -14.62874009191527 -13.654217718121522 0 0 0
1094 137 6 0.19089 -14.566026592287043 -10.348429966715324 -13.180676768954566 -1 0 1
1976 247 6 0.1559 -8.96628308259234 -13.19935953524357 -11.880382092156722 0 0 0
2328 291 6 0.1559 -8.082396455120826 -15.476143868989931 -21.572733786375142 0 1 0
1084 136 4 -0.488411 -10.41047306708169 -7.831003950744735 -11.413074385249105 1 0 0
2995 375 3 0.512161 -10.853947649671758 -9.80041966874638 -22.067381568728802 0 0 0
1196 150 4 -0.488411 -14.844247750396349 -13.519232987003386 -20.69406522542416 1 1 1
2997 375 5 -0.008385 -9.829477423698666 -9.633029235884381 -21.736320556417663 0 0 0
1081 136 1 -0.38353 -11.443745617950674 -6.803146945563647 -14.701202879145317 1 0 0
1932 242 4 -0.488411 -1.2786052533967016 -9.734126845611504 -20.599707218841804 1 1 1
1749 219 5 -0.008385 -6.459377063045972 -6.44512497467338 -17.511915482939408 -1 1 1
4089 512 1 -0.38353 -2.1139924420764853 -18.44710639042571 -17.5654871762826 1 -1 1
4093 512 5 -0.008385 -4.332266835152208 -18.93621548820933 -19.17943787243722 1 -1 1
387 49 3 0.512161 -0.38030337393571756 -7.779298146014307 -12.075007602769782 -1 0 0
1813 227 5 -0.008385 -1.5101523404836126 -7.971537384553292 -18.419891799881164 0 1 0
389 49 5 -0.008385 -0.1717678255483186 -6.662379002448699 -12.095806672721924 -1 0 0
4095 512 6 0.19089 -1.296871076077263 -18.126055781971516 -16.92326503350316 1 -1 1
907 114 3 0.512161 -4.243774652939873 -15.621090356384329 -11.360335519234303 -1 1 0
1415 177 6 0.19089 -1.8821128026903047 -12.750794315676497 -21.046121837209963 1 0 1
1641 206 1 -0.38353 -4.992388131365551 -9.583266133301736 -20.833510419358657 0 0 1
1648 206 6 0.1559 -4.310681044171526 -7.877748714602248 -21.911597682381146 0 0 1
3967 496 6 0.19089 -3.4897736262754258 -18.39722231561052 -14.195857570949324 -1 1 0
1411 177 3 0.512161 -3.079111163519114 -12.10531478065284 -17.809711958691214 1 0 1
3504 438 6 0.1559 -2.845342919572367 -10.435066564420254 -13.542028758646117 0 0 0
909 114 5 -0.008385 -4.046281011338049 -16.718125736433613 -11.32236161458818 -1 1 0
2124 266 4 -0.488411 -6.823711461062025 -11.608619495195988 -18.84059169289508 -1 1 1
1221 153 5 -0.008385 -6.078570968536871 -6.618242031930265 -11.773258088880743 1 1 1
3964 496 4 -0.488411 -0.15083401745763148 -15.69499848063456 -12.52225589527086 -1 1 0
1645 206 5 -0.008385 -7.344281039445813 -8.238887203538043 -21.102994000072563 0 0 1
1412 177 4 -0.488411 -2.7207369153129477 -11.767926298367954 -16.7106830137677 1 0 1
4090 512 2 -0.169515 -3.27265929136186 -17.741649756890496 -17.66131204043519 1 -1 1
2183 273 6 0.19089 -4.5679661736231765 -14.239502814614012 -15.69180923255066 0 1 0
1811 227 3 0.512161 -1.0664388757405092 -7.079463809678591 -18.916103268450073 0 1 0
1747 219 3 0.512161 -6.705363337475877 -7.519871037134575 -17.36939932691479 -1 1 1
1750 219 6 0.19089 -4.078909272357759 -7.02377594223257 -17.707306494249096 -1 1 1
3497 438 1 -0.38353 -2.1968902746875596 -12.385331835098018 -13.200199218290258 0 0 0
908 114 4 -0.488411 -4.278939069440328 -14.958993302563645 -12.392794148461377 -1 1 0
3813 477 5 -0.008385 -9.000254258443483 -18.95565549290156 -12.82266549900754 0 0 1
1416 177 6 0.1559 -1.0892097969988122 -12.120861989107734 -18.65736381880899 1 0 1
2161 271 1 -0.38353 -5.966013716437214 -11.126855810690772 -14.659052105264166 -1 0 1
2162 271 2 -0.169515 -7.320806767098157 -11.240496742020417 -14.683514086162686 -1 0 1
1413 177 5 -0.008385 -4.146472542421034 -12.274169440419108 -18.010276497275036 1 0 1
1974 247 6 0.19089 -7.110225475109192 -15.659967618777646 -12.176366532659284 0 0 0
2196 275 4 -0.488411 -1.3537838898132186 -18.38339023846239 -21.28240693145114 0 1 1
2179 273 3 0.512161 -7.02005814246508 -16.644014196536776 -15.60223830230483 0 1 0
4091 512 3 0.512161 -4.452045295522996 -18.015675392471557 -18.533996867260342 1 -1 1
3968 496 6 0.1559 -1.921658579604399 -16.525175869593642 -14.45318820005306 -1 1 0
1414 177 6 0.19089 -3.5778324289210577 -12.70096226825588 -20.482177456064463 1 0 1
3966 496 6 0.19089 -2.727260681268831 -18.763916498168534 -12.53863457968864 -1 1 0
1746 219 2 -0.169515 -5.611872065583116 -8.535699059662193 -17.617108538331888 -1 1 1
386 49 2 -0.169515 -1.5514725131903084 -8.212045873493436 -11.30466224879703 -1 0 0
1963 246 3 0.512161 -0.7440220159022264 -7.571340120923692 -15.71082791789204 0 0 1
3500 438 4 -0.488411 -4.52248972016908 -10.108622833631753 -11.652429078246545 0 0 0
1752 219 6 0.1559 -5.893176855100464 -9.574251581121983 -17.573653258585622 -1 1 1
2177 273 1 -0.38353 -5.470180390620543 -14.743246283958115 -15.978885422998282 0 1 0
3503 438 6 0.19089 -1.5549559484064357 -12.435754659074 -14.03460008446572 0 0 0
3499 438 3 0.512161 -3.912855026660898 -11.12952348835492 -11.807568307000903 0 0 0
1410 177 2 -0.169515 -2.1392621065151385 -12.219928166561612 -18.91802113799489 1 0 1
1751 219 6 0.19089 -3.5325016312106357 -8.889788569094732 -17.697926575575337 -1 1 1
1931 242 3 0.512161 -0.5373277081654937 -10.048810561965945 -21.473273492038825 1 1 1
4096 512 6 0.1559 -3.3976363523892203 -16.879364182268016 -17.078029459516962 1 -1 1
2323 291 3 0.512161 -6.574600011160564 -14.54354102337889 -20.260564098658993 0 1 0
1643 206 3 0.512161 -6.465760961134013 -7.682020304443096 -21.519741336932036 0 0 1
3963 496 3 0.512161 -0.9687607103588416 -16.60153722238689 -12.488069064103904 -1 1 0
3965 496 5 -0.008385 -0.8595350883036268 -17.290823325853445 -11.589388342887792 -1 1 0
1964 246 4 -0.488411 -1.6965570600790372 -6.879748333366335 -15.999700558183207 0 0 1
1642 206 2 -0.169515 -5.140324807244587 -8.36769638824417 -21.392839570197644 0 0 1
1962 246 2 -0.169515 -0.806723688887999 -9.076631343581685 -15.66735418146726 0 0 1
2167 271 6 0.19089 -5.392811648356066 -11.898457635544105 -15.141403863243017 -1 0 1
3498 438 2 -0.169515 -2.950157327490688 -11.298138155930221 -12.930281604470316 0 0 0
3431 429 6 0.19089 -0.7761290472797349 -16.369110597864285 -19.90629313373148 -1 0 1
4092 512 4 -0.488411 -5.437697705787075 -17.33814716301841 -18.587226426423356 1 -1 1
2184 273 6 0.1559 -5.0696130992030195 -16.400242802468405 -14.73442053834032 0 1 0
1968 246 6 0.1559 -1.7792562337823252 -9.448385426546087 -16.020919913338773 0 0 1
1745 219 1 -0.38353 -4.319523548195724 -8.143900828552816 -17.683896684360846 -1 1 1
3962 496 2 -0.169515 -1.949714181150073 -17.044527019055003 -13.501513587600128 -1 1 0
2180 273 4 -0.488411 -7.250814095792117 -17.73410148967872 -15.04859021980246 0 1 0
1409 177 1 -0.38353 -2.5486160494889294 -12.557099725404894 -20.19370287631069 1 0 1
1646 206 6 0.19089 -5.845292104343102 -9.916257135971032 -20.196316596372355 0 0 1
2178 273 2 -0.169515 -5.70908944841381 -15.96106168819261 -15.440858122401174 0 1 0
1223 153 6 0.19089 -3.9276515272082033 -7.272327455160886 -14.852846132271003 1 1 1
3502 438 6 0.19089 -2.251837542563404 -13.243174013801703 -12.576913098090289 0 0 0
1647 206 6 0.19089 -4.020687915984601 -10.137816421796146 -20.787549593664856 0 0 1
1217 153 1 -0.38353 -4.493947142204217 -7.2463093424517915 -13.950485785998374 1 1 1
2182 273 6 0.19089 -6.113933453388642 -14.169984572927788 -16.609258140001508 0 1 0
2181 273 5 -0.008385 -7.8260214023061705 -16.182810672459553 -16.230009152778894 0 1 0
2324 291 4 -0.488411 -5.89360038779961 -13.979553186225171 -21.121609689803506 0 1 0
1222 153 6 0.19089 -4.268511478728598 -7.90792768240185 -13.167042202638406 1 1 1
2325 291 5 -0.008385 -6.243857623814474 -14.591714626104679 -19.18148423919192 0 1 0
2166 271 6 0.19089 -5.411262301331066 -10.265467658621303 -14.253927237988005 -1 0 1
3961 496 1 -0.38353 -2.7515090523045522 -18.113667468939983 -13.4006746876795 -1 1 0
1090 137 2 -0.169515 -14.805731611413316 -8.32629711157635 -12.93732007878717 -1 0 1
186 24 2 -0.169515 -12.511893300641953 -15.462142878783377 -2.9281501902641125 1 0 1
1831 229 6 0.19089 -12.47365957649931 -7.922630701687831 -9.378549822270816 1 0 0
44 6 4 -0.488411 -14.608274007154005 -12.504031605769391 -5.981463324815913 1 0 0
42 6 2 -0.169515 -14.73531892678697 -10.769683220300951 -4.421066138415693 1 0 0
48 6 6 0.1559 -14.056068524947673 -11.342359940842554 -3.784199483380757 1 0 0
192 24 6 0.1559 -11.593941096109749 -16.037254553756892 -2.7697084201408053 1 0 1
2901 363 5 -0.008385 -8.029998127593093 -18.526850667471592 -4.167427283957121 1 0 1
187 24 3 0.512161 -13.829127870619438 -16.147271791445284 -2.581426793475597 1 0 1
189 24 5 -0.008385 -14.71064143274129 -15.634359649050621 -3.0414390541684604 1 0 1
188 24 4 -0.488411 -13.946098475237623 -17.230849539062827 -2.1012815312067374 1 0 1
3440 430 6 0.1559 -9.644749197337799 -11.609125117919506 -2.5703848885673075 0 0 0
3434 430 2 -0.169515 -9.081678246490824 -11.142895659617313 -3.3544691414599264 0 0 0
3435 430 3 0.512161 -9.977352572218376 -10.7377575170633 -4.482005148009872 0 0 0
3489 437 1 -0.38353 -14.709525745657945 -16.83095056313481 -5.4027201693150495 0 1 0
3185 399 1 -0.38353 -11.57742993410142 -8.820056968485249 -0.5766376785971268 1 1 0
3437 430 5 -0.008385 -9.429069143762458 -10.101540315975146 -5.171824226819304 0 0 0
3436 430 4 -0.488411 -11.174755512489476 -10.855796667074978 -4.416468781122077 0 0 0
3905 489 1 -0.38353 -11.763156185148972 -11.497464839338818 -8.110709197105153 -1 0 -1
2591 324 6 0.19089 -11.04105859486544 -14.389096608984106 -5.918849929694439 1 0 0
2585 324 1 -0.38353 -10.043626244399226 -14.332868170673626 -6.361064902932059 1 0 0
2586 324 2 -0.169515 -9.116793907690553 -15.285161773467117 -6.279109065920549 1 0 0
2592 324 6 0.1559 -9.327379275312925 -16.147482540931165 -5.7286528584702765 1 0 0
3115 390 3 0.512161 -11.4467942329856 -8.008957775529549 -5.720135371072288 0 0 0
2590 324 6 0.19089 -9.951914659183885 -13.425294880251961 -6.965343020496832 1 0 0
2587 324 3 0.512161 -7.772193503211857 -15.294977842002295 -6.918660724865358 1 0 0
190 24 6 0.19089 -13.293311171269744 -13.747281948206005 -3.8169178269241257 1 0 1
2252 282 4 -0.488411 -8.746466417915938 -6.715024833057624 -1.486292074841458 0 0 0
3490 437 2 -0.169515 -13.671793806075554 -16.889950623389645 -6.277623187550731 0 1 0
72 9 6 0.1559 -7.359065830771182 -11.671992473602295 -0.20817605337436262 0 0 0
3496 437 6 0.1559 -13.375229137958348 -15.949008537413505 -6.86391906624335 0 1 0
3114 390 2 -0.169515 -10.981565323191681 -7.1568551609168605 -4.587554999706658 0 0 0
1972 247 4 -0.488411 -8.726921323850888 -13.764851477460514 -9.288002749533968 0 0 0
3491 437 3 0.512161 -12.971866181591276 -18.18112144180659 -6.588924186095353 0 1 0
3910 489 6 0.19089 -12.345373577148408 -11.675427482237538 -7.209687038992346 -1 0 -1
3907 489 3 0.512161 -12.178453120492783 -13.863303553176149 -8.802103807144283 -1 0 -1
2280 285 6 0.1559 -8.996648948982077 -10.090816199005543 -7.780052522781874 0 1 1
3113 390 1 -0.38353 -11.66420096336385 -6.966838903328785 -3.436501519813362 0 0 0
3909 489 5 -0.008385 -12.741662149752074 -13.950938440411395 -7.864857795716889 -1 0 -1
3911 489 6 0.19089 -11.363897433161556 -10.425010094050629 -8.34034122393228 -1 0 -1
3117 390 5 -0.008385 -12.51440096041529 -8.24519062538247 -5.594553621317466 0 0 0
3254 407 6 0.19089 -8.253682585262897 -13.87309374372892 -3.825111634388154 0 0 0
185 24 1 -0.38353 -12.422140560924815 -14.245219597428408 -3.4779660089857956 1 0 1
191 24 6 0.19089 -11.452026340557621 -13.830592520782169 -3.6939928208993464 1 0 1
3192 399 6 0.1559 -12.34387628185291 -9.853674656633702 -2.331933332313895 1 1 0
3906 489 2 -0.169515 -11.531829698582138 -12.54487028842171 -8.999402468898735 -1 0 -1
3492 437 4 -0.488411 -12.064006634105969 -18.266729134463013 -7.421568833765338 0 1 0
3814 477 6 0.19089 -8.305281281686222 -17.867927456851035 -10.779710147589896 0 0 1
2897 363 1 -0.38353 -10.7725891423038 -18.70540755185081 -4.136367470063657 1 0 1
47 6 6 0.19089 -14.740977019517729 -9.03897228625913 -3.1502520315644063 1 0 0
3120 390 6 0.1559 -9.964171059025293 -6.749006601607812 -4.731205867970353 0 0 0
3116 390 4 -0.488411 -10.683108757796763 -8.357484278040772 -6.61989708999687 0 0 0
2899 363 3 0.512161 -8.491870878506987 -18.259136058440237 -3.154598084707544 1 0 1
2274 285 2 -0.169515 -8.119620179602293 -10.429255420381018 -8.373391728479877 0 1 1
2273 285 1 -0.38353 -7.988017868420688 -10.044965632108058 -9.654701884068407 0 1 1
3912 489 6 0.1559 -10.976388038475104 -12.423508658358578 -9.933695540740413 -1 0 -1
2903 363 6 0.19089 -11.854070900728965 -18.917797967981365 -4.058711541848481 1 0 1
2898 363 2 -0.169515 -10.000591022884018 -18.34872704314076 -3.110877742373905 1 0 1
543 68 6 0.19089 -12.518471227099695 -17.676860696396837 -9.953579423403662 1 0 0
1971 247 3 0.512161 -8.076385532842753 -14.296050879982673 -10.155477505776913 0 0 0
537 68 1 -0.38353 -13.563543153266597 -17.509820484589028 -10.285498810870692 1 0 0
2279 285 6 0.19089 -8.66080367904894 -9.348474045842702 -10.100344675960264 0 1 1
3187 399 3 0.512161 -13.65528244133294 -10.33519389585184 -0.638319740005663 1 1 0
3191 399 6 0.19089 -10.73479299401665 -8.342365707520749 -1.00444736871016 1 1 0
3908 489 4 -0.488411 -11.95207468704536 -14.837070169341509 -9.509515237976215 -1 0 -1
3186 399 2 -0.169515 -12.485904551035732 -9.600437697775556 -1.259107610092009 1 1 0
2902 363 6 0.19089 -10.276854253524876 -18.978452655379776 -5.027590351057427 1 0 1
3249 407 1 -0.38353 -7.756489919775569 -14.533228328078303 -3.092785602469938 0 0 0
3255 407 6 0.19089 -8.391650262517743 -15.117653189996135 -2.349521958781125 0 0 0
538 68 2 -0.169515 -14.26358885676162 -18.660875788896988 -10.454622966818183 1 0 0
3188 399 4 -0.488411 -14.358223634211924 -11.071544765570517 -1.3216168702493185 1 1 0
1825 229 1 -0.38353 -13.394869217463697 -8.289015909733072 -8.953110596651873 1 0 0
1830 229 6 0.19089 -13.311364255945232 -9.245963280825165 -8.407822965919602 1 0 0
41 6 1 -0.38353 -15.082237253242928 -9.516233317791922 -4.149146301003167 1 0 0
2904 363 6 0.1559 -10.427507330396255 -18.038388756851084 -2.166285155561937 1 0 1
3433 430 1 -0.38353 -7.734733267276508 -10.995121474855019 -3.231858726169733 0 0 0
2251 282 3 0.512161 -7.84989300242588 -7.5137115363908915 -1.8306109936656263 0 0 0
3815 477 6 0.19089 -9.497958541621339 -16.626058159968785 -9.963302044251925 0 0 1
542 68 6 0.19089 -13.919240533397225 -16.46928345119233 -10.277726717610324 1 0 0
1708 214 4 -0.488411 -14.581894069965394 -6.542109715648017 -1.4912670929878047 0 0 1
1832 229 6 0.1559 -14.562165700941916 -6.751940753120971 -9.749895761284987 1 0 0
727 91 6 0.19089 -9.024732754890675 -18.329263845223974 -7.934589937681233 1 0 0
404 51 4 -0.488411 -14.847534454105341 -12.577878480910758 -10.253649892286079 0 0 0
2276 285 4 -0.488411 -7.285912587307988 -11.596120267217977 -6.490860114348353 0 1 1
3118 390 6 0.19089 -12.6672914904386 -7.475793779374655 -3.2569216541602444 0 0 0
1973 247 5 -0.008385 -7.429540197038887 -15.20086997962513 -9.961732279468567 0 0 0
2358 295 6 0.19089 -8.150000274808274 -7.747961268529121 -7.309975451108922 1 0 0
3681 461 1 -0.38353 -0.7180583479744946 -19.00480052664958 -0.9709572526149763 0 0 0
1826 229 2 -0.169515 -14.559815211574978 -7.62371940575818 -9.159284953836183 1 0 0
3809 477 1 -0.38353 -9.271167016584538 -17.352528459380686 -10.790105971096029 0 0 1
3460 433 4 -0.488411 -10.650628548886289 -15.12533016116899 -0.3701554967602938 1 0 0
3464 433 6 0.1559 -12.74257173180275 -13.617097471227904 -0.5595668990304716 1 0 0
1402 176 2 -0.169515 -0.05177256896705096 -15.986687731920862 -3.5485893625509455 0 0 0
2588 324 4 -0.488411 -6.951050927278548 -16.205730043937606 -6.843130720161094 1 0 0
2589 324 5 -0.008385 -7.533711195668526 -14.400927432076465 -7.45817265819003 1 0 0
962 121 2 -0.169515 -0.8638893089833388 -12.602645969313267 -2.9015881898717844 1 0 0
949 119 5 -0.008385 -3.590420958783495 -14.011602774979028 -0.7122483349413642 2 0 0
945 119 1 -0.38353 -4.649818712083041 -11.466612802552152 -1.023615846062981 2 0 0
3493 437 5 -0.008385 -13.404442192741467 -19.068472727808512 -5.939516583035136 0 1 0
2359 295 6 0.19089 -7.551394304571768 -7.307964081249821 -5.61892526176052 1 0 0
967 121 6 0.19089 -1.1502517182940224 -13.389773588560232 -0.9629329432489158 1 0 0
2249 282 1 -0.38353 -5.577411994026033 -7.8401795289325396 -2.779076093619924 0 0 0
964 121 4 -0.488411 -0.3114191100859056 -11.925677839922923 -5.110448000900345 1 0 0
2255 282 6 0.19089 -4.576382636022116 -7.467369081791752 -3.1096829808923907 0 0 0
3622 453 6 0.19089 -0.999087596043525 -8.864620859668126 -0.19597361188620965 0 0 0
3624 453 6 0.1559 -2.408990802088235 -10.36199671430945 -2.3952045521429497 0 0 0
2900 363 4 -0.488411 -7.83556881539468 -17.772288417669426 -2.2703342312553048 1 0 1
385 49 1 -0.38353 -2.4708284240797767 -7.372929451807378 -10.827795789459573 -1 0 0
3617 453 1 -0.38353 -1.354035346167123 -9.710268135053306 -0.6829595296762818 0 0 0
3623 453 6 0.19089 -1.5767477182973284 -10.544488122116798 -0.07484290791001058 0 0 0
1153 145 1 -0.38353 -0.5351361707625628 -15.518524006915785 -8.433666023047486 0 0 0
1158 145 6 0.19089 -0.6894400268691392 -16.12297143113917 -7.541585567649186 0 0 0
3438 430 6 0.19089 -7.166669363348761 -10.547588836681298 -4.069519052285354 0 0 0
2226 279 2 -0.169515 -3.217229390221755 -18.854233795906588 -4.181541520801051 0 0 0
3494 437 6 0.19089 -15.021645295525452 -17.632554739410754 -4.706309592508948 0 1 0
2703 338 6 0.19089 -3.904987218838256 -8.692260896495947 -8.010794280380162 1 0 0
2230 279 6 0.19089 -4.061129145205932 -17.272948057878203 -5.4464949746515 0 0 0
1540 193 4 -0.488411 -2.549096692728268 -18.552243877913686 -9.861022438514174 -1 1 0
3687 461 6 0.19089 -1.4243546857967466 -18.286787728952184 -0.869168161843433 0 0 0
2227 279 3 0.512161 -4.30281117300245 -18.940825026044887 -3.229281865803891 0 0 0
906 114 2 -0.169515 -4.43710226999384 -14.958379507346155 -10.010664303624267 -1 1 0
2339 293 3 0.512161 -1.030072067944083 -10.329868966618633 -8.07088751352816 0 1 0
912 114 6 0.1559 -4.619879282676402 -13.86516172501221 -10.036634460806555 -1 1 0
3256 407 6 0.1559 -5.9577155529871835 -15.219535351436248 -2.2387044637387916 0 0 0
2341 293 5 -0.008385 -1.5209434339566545 -10.68382061762974 -7.217317392726576 0 1 0
391 49 6 0.19089 -3.3155819559439124 -7.710850093392725 -10.215340817150176 -1 0 0
2254 282 6 0.19089 -5.687692858183945 -8.930567022256813 -2.9941861259963822 0 0 0
2278 285 6 0.19089 -7.269922587186818 -10.451160342931157 -10.368048662831404 0 1 1
1403 176 3 0.512161 -1.4995684732698145 -15.841885586980418 -3.1882870082462738 0 0 0
3886 486 6 0.19089 -2.0049563871584866 -6.644350367521245 -7.391895688978787 0 1 0
3887 486 6 0.19089 -1.636465923947478 -6.498777259650893 -5.5992709542477 0 1 0
3618 453 2 -0.169515 -1.8816086917964654 -9.589153759210674 -1.910954806842689 0 0 0
2275 285 3 0.512161 -7.215481712017295 -11.362915104750849 -7.668558431827366 0 1 1
910 114 6 0.19089 -4.401346936441358 -16.687710135418325 -8.705549129549166 -1 1 0
2702 338 6 0.19089 -4.171968278932113 -10.533032353945675 -8.24590578856915 1 0 0
2250 282 2 -0.169515 -6.513427603265924 -7.03450926889372 -2.266368436156995 0 0 0
2229 279 5 -0.008385 -5.099782479189711 -18.232975919460838 -3.4598331323457536 0 0 0
3439 430 6 0.19089 -7.186077420594109 -11.455183267606003 -2.393452604846807 0 0 0
3621 453 5 -0.008385 -1.0603568642955263 -7.5895668175296205 -2.308261361549576 0 0 0
2231 279 6 0.19089 -2.37549036933682 -17.938983037158106 -5.884127445480257 0 0 0
2253 282 5 -0.008385 -7.978725359552197 -8.629246076286737 -1.9599618742364129 0 0 0
2698 338 2 -0.169515 -4.08582161748885 -9.771249776986812 -6.2825375695099925 1 0 0
968 121 6 0.1559 -1.9923241671132015 -12.477696760727067 -3.1508999787117453 1 0 0
3619 453 3 0.512161 -1.7339713904238625 -8.358606083999783 -2.7412068405556163 0 0 0
3253 407 5 -0.008385 -6.08764856268391 -13.78191649081629 -5.006732424306573 0 0 0
2697 338 1 -0.38353 -4.023366207505234 -9.67234219432555 -7.624501492053001 1 0 0
905 114 1 -0.38353 -4.5240399798479825 -15.622171728431713 -8.831945806191474 -1 1 0
788 99 4 -0.488411 -0.44558935693576984 -18.807136287316848 -6.966679581524728 0 1 0
1404 176 4 -0.488411 -1.9876369094954018 -16.26534152103053 -2.133991110678455 0 0 0
2354 295 2 -0.169515 -6.245860559350852 -6.751014193006085 -7.139173595402589 1 0 0
1406 176 6 0.19089 -0.19143749993769532 -14.917612097840754 -5.425815895575788 0 0 0
1157 145 5 -0.008385 -2.0445422836009897 -14.196393089706824 -6.668897562405229 0 0 0
3252 407 4 -0.488411 -4.316000006810096 -14.111523282846676 -4.060438539396483 0 0 0
2277 285 5 -0.008385 -6.476560019432135 -11.88810878704848 -8.347705620775175 0 1 1
950 119 6 0.19089 -4.277172122749267 -11.85438631350468 -1.9308834622688629 2 0 0
3620 453 4 -0.488411 -2.2532369498336084 -8.27190672571953 -3.854056597245833 0 0 0
2225 279 1 -0.38353 -3.2557262121981605 -17.96000448419983 -5.232246443989926 0 0 0
911 114 6 0.19089 -4.611016885429571 -15.079472619587863 -7.910757213160158 -1 1 0
961 121 1 -0.38353 -0.5010790401821357 -13.096227140084927 -1.7021501984745804 1 0 0
3251 407 3 0.512161 -5.555868470691031 -14.040927095804982 -4.068829632746308 0 0 0
2704 338 6 0.1559 -4.00842655347614 -8.92893476596098 -5.58406694000227 1 0 0
1154 145 2 -0.169515 -1.2382750163351943 -14.379604233407754 -8.631982598143082 0 0 0
3250 407 2 -0.169515 -6.421688091766686 -14.69277667638896 -3.0353395324450325 0 0 0
1155 145 3 0.512161 -2.088051597850388 -13.707916853004587 -7.64901479499461 0 0 0
2701 338 5 -0.008385 -4.367702425955153 -11.97979736781293 -6.280028993777593 1 0 0
728 91 6 0.1559 -6.6317441476729595 -18.786478231103466 -8.391101527511774 1 0 0
1405 176 5 -0.008385 -2.09261680176197 -15.333532429030235 -3.944856998317942 0 0 0
2700 338 4 -0.488411 -4.596413526441655 -11.1597259492654 -4.4381498168175995 1 0 0
1160 145 6 0.1559 -1.2068291629022614 -13.838741884225627 -9.547998185678347 0 0 0
2699 338 3 0.512161 -4.387779914457646 -11.085339098675144 -5.634299302985646 1 0 0
2340 293 4 -0.488411 -1.2772750330696692 -10.783129825888468 -9.182531077021515 0 1 0
1156 145 4 -0.488411 -2.9123308464651885 -12.818953485658076 -7.938462578864211 0 0 0
3119 390 6 0.19089 -11.200102231818263 -6.390109088883236 -2.631445416763203 0 0 0
951 119 6 0.19089 -4.943440565788013 -10.444263957936098 -1.0147876189046343 2 0 0
2355 295 3 0.512161 -5.921846614707199 -6.61924765995909 -8.565462424732292 1 0 0
2353 295 1 -0.38353 -7.353556811093259 -7.351504702532202 -6.695811116193848 1 0 0
2342 293 6 0.19089 -0.2016208784583764 -9.031227470505483 -5.69772509081178 0 1 0